# vtk DataFile Version 1.0
2D Unstructured Grid of Linear Triangles
ASCII

DATASET UNSTRUCTURED_GRID
POINTS 6144 float
0.03125 0.03125 0
0 0.0625 0
0 0 0
0.015625 0.046875 0
0 0.03125 0
0.015625 0.015625 0
0.03125 0.03125 0
0.0625 0.0625 0
0 0.0625 0
0.046875 0.046875 0
0.03125 0.0625 0
0.015625 0.046875 0
0.03125 0.03125 0
0 0 0
0.0625 0 0
0.015625 0.015625 0
0.03125 0 0
0.046875 0.015625 0
0.03125 0.03125 0
0.0625 0 0
0.0625 0.0625 0
0.046875 0.015625 0
0.0625 0.03125 0
0.046875 0.046875 0
0.03125 0.09375 0
0 0.125 0
0 0.0625 0
0.015625 0.109375 0
0 0.09375 0
0.015625 0.078125 0
0.03125 0.09375 0
0 0.0625 0
0.0625 0.0625 0
0.015625 0.078125 0
0.03125 0.0625 0
0.046875 0.078125 0
0.03125 0.09375 0
0.0625 0.125 0
0 0.125 0
0.046875 0.109375 0
0.03125 0.125 0
0.015625 0.109375 0
0.03125 0.09375 0
0.0625 0.0625 0
0.0625 0.125 0
0.046875 0.078125 0
0.0625 0.09375 0
0.046875 0.109375 0
0.09375 0.09375 0
0.125 0.125 0
0.0625 0.125 0
0.109375 0.109375 0
0.09375 0.125 0
0.078125 0.109375 0
0.09375 0.09375 0
0.0625 0.125 0
0.0625 0.0625 0
0.078125 0.109375 0
0.0625 0.09375 0
0.078125 0.078125 0
0.09375 0.09375 0
0.125 0.0625 0
0.125 0.125 0
0.109375 0.078125 0
0.125 0.09375 0
0.109375 0.109375 0
0.09375 0.09375 0
0.0625 0.0625 0
0.125 0.0625 0
0.078125 0.078125 0
0.09375 0.0625 0
0.109375 0.078125 0
0.09375 0.15625 0
0.0625 0.125 0
0.125 0.125 0
0.078125 0.140625 0
0.09375 0.125 0
0.109375 0.140625 0
0.09375 0.15625 0
0.0625 0.1875 0
0.0625 0.125 0
0.078125 0.171875 0
0.0625 0.15625 0
0.078125 0.140625 0
0.09375 0.15625 0
0.125 0.125 0
0.125 0.1875 0
0.109375 0.140625 0
0.125 0.15625 0
0.109375 0.171875 0
0.09375 0.15625 0
0.125 0.1875 0
0.0625 0.1875 0
0.109375 0.171875 0
0.09375 0.1875 0
0.078125 0.171875 0
0.03125 0.15625 0
0 0.125 0
0.0625 0.125 0
0.015625 0.140625 0
0.03125 0.125 0
0.046875 0.140625 0
0.03125 0.15625 0
0.0625 0.125 0
0.0625 0.1875 0
0.046875 0.140625 0
0.0625 0.15625 0
0.046875 0.171875 0
0.03125 0.15625 0
0 0.1875 0
0 0.125 0
0.015625 0.171875 0
0 0.15625 0
0.015625 0.140625 0
0.03125 0.15625 0
0.0625 0.1875 0
0 0.1875 0
0.046875 0.171875 0
0.03125 0.1875 0
0.015625 0.171875 0
0.09375 0.03125 0
0.0625 0 0
0.125 0 0
0.078125 0.015625 0
0.09375 0 0
0.109375 0.015625 0
0.09375 0.03125 0
0.0625 0.0625 0
0.0625 0 0
0.078125 0.046875 0
0.0625 0.03125 0
0.078125 0.015625 0
0.09375 0.03125 0
0.125 0 0
0.125 0.0625 0
0.109375 0.015625 0
0.125 0.03125 0
0.109375 0.046875 0
0.09375 0.03125 0
0.125 0.0625 0
0.0625 0.0625 0
0.109375 0.046875 0
0.09375 0.0625 0
0.078125 0.046875 0
0.15625 0.09375 0
0.125 0.125 0
0.125 0.0625 0
0.140625 0.109375 0
0.125 0.09375 0
0.140625 0.078125 0
0.15625 0.09375 0
0.125 0.0625 0
0.1875 0.0625 0
0.140625 0.078125 0
0.15625 0.0625 0
0.171875 0.078125 0
0.15625 0.09375 0
0.1875 0.125 0
0.125 0.125 0
0.171875 0.109375 0
0.15625 0.125 0
0.140625 0.109375 0
0.15625 0.09375 0
0.1875 0.0625 0
0.1875 0.125 0
0.171875 0.078125 0
0.1875 0.09375 0
0.171875 0.109375 0
0.15625 0.03125 0
0.125 0.0625 0
0.125 0 0
0.140625 0.046875 0
0.125 0.03125 0
0.140625 0.015625 0
0.15625 0.03125 0
0.1875 0.0625 0
0.125 0.0625 0
0.171875 0.046875 0
0.15625 0.0625 0
0.140625 0.046875 0
0.15625 0.03125 0
0.125 0 0
0.1875 0 0
0.140625 0.015625 0
0.15625 0 0
0.171875 0.015625 0
0.15625 0.03125 0
0.1875 0 0
0.1875 0.0625 0
0.171875 0.015625 0
0.1875 0.03125 0
0.171875 0.046875 0
0.03125 0.21875 0
0 0.25 0
0 0.1875 0
0.015625 0.234375 0
0 0.21875 0
0.015625 0.203125 0
0.03125 0.21875 0
0 0.1875 0
0.0625 0.1875 0
0.015625 0.203125 0
0.03125 0.1875 0
0.046875 0.203125 0
0.03125 0.21875 0
0.0625 0.25 0
0 0.25 0
0.046875 0.234375 0
0.03125 0.25 0
0.015625 0.234375 0
0.03125 0.21875 0
0.0625 0.1875 0
0.0625 0.25 0
0.046875 0.203125 0
0.0625 0.21875 0
0.046875 0.234375 0
0.09375 0.21875 0
0.125 0.25 0
0.0625 0.25 0
0.109375 0.234375 0
0.09375 0.25 0
0.078125 0.234375 0
0.09375 0.21875 0
0.0625 0.25 0
0.0625 0.1875 0
0.078125 0.234375 0
0.0625 0.21875 0
0.078125 0.203125 0
0.09375 0.21875 0
0.125 0.1875 0
0.125 0.25 0
0.109375 0.203125 0
0.125 0.21875 0
0.109375 0.234375 0
0.09375 0.21875 0
0.0625 0.1875 0
0.125 0.1875 0
0.078125 0.203125 0
0.09375 0.1875 0
0.109375 0.203125 0
0.03125 0.28125 0
0 0.25 0
0.0625 0.25 0
0.015625 0.265625 0
0.03125 0.25 0
0.046875 0.265625 0
0.03125 0.28125 0
0.0625 0.25 0
0.0625 0.3125 0
0.046875 0.265625 0
0.0625 0.28125 0
0.046875 0.296875 0
0.03125 0.28125 0
0 0.3125 0
0 0.25 0
0.015625 0.296875 0
0 0.28125 0
0.015625 0.265625 0
0.03125 0.28125 0
0.0625 0.3125 0
0 0.3125 0
0.046875 0.296875 0
0.03125 0.3125 0
0.015625 0.296875 0
0.09375 0.28125 0
0.0625 0.25 0
0.125 0.25 0
0.078125 0.265625 0
0.09375 0.25 0
0.109375 0.265625 0
0.09375 0.28125 0
0.0625 0.3125 0
0.0625 0.25 0
0.078125 0.296875 0
0.0625 0.28125 0
0.078125 0.265625 0
0.09375 0.28125 0
0.125 0.25 0
0.125 0.3125 0
0.109375 0.265625 0
0.125 0.28125 0
0.109375 0.296875 0
0.09375 0.28125 0
0.125 0.3125 0
0.0625 0.3125 0
0.109375 0.296875 0
0.09375 0.3125 0
0.078125 0.296875 0
0.15625 0.15625 0
0.125 0.1875 0
0.125 0.125 0
0.140625 0.171875 0
0.125 0.15625 0
0.140625 0.140625 0
0.15625 0.15625 0
0.1875 0.1875 0
0.125 0.1875 0
0.171875 0.171875 0
0.15625 0.1875 0
0.140625 0.171875 0
0.15625 0.15625 0
0.125 0.125 0
0.1875 0.125 0
0.140625 0.140625 0
0.15625 0.125 0
0.171875 0.140625 0
0.15625 0.15625 0
0.1875 0.125 0
0.1875 0.1875 0
0.171875 0.140625 0
0.1875 0.15625 0
0.171875 0.171875 0
0.15625 0.21875 0
0.125 0.25 0
0.125 0.1875 0
0.140625 0.234375 0
0.125 0.21875 0
0.140625 0.203125 0
0.15625 0.21875 0
0.125 0.1875 0
0.1875 0.1875 0
0.140625 0.203125 0
0.15625 0.1875 0
0.171875 0.203125 0
0.15625 0.21875 0
0.1875 0.25 0
0.125 0.25 0
0.171875 0.234375 0
0.15625 0.25 0
0.140625 0.234375 0
0.15625 0.21875 0
0.1875 0.1875 0
0.1875 0.25 0
0.171875 0.203125 0
0.1875 0.21875 0
0.171875 0.234375 0
0.21875 0.21875 0
0.25 0.25 0
0.1875 0.25 0
0.234375 0.234375 0
0.21875 0.25 0
0.203125 0.234375 0
0.21875 0.21875 0
0.1875 0.25 0
0.1875 0.1875 0
0.203125 0.234375 0
0.1875 0.21875 0
0.203125 0.203125 0
0.21875 0.21875 0
0.25 0.1875 0
0.25 0.25 0
0.234375 0.203125 0
0.25 0.21875 0
0.234375 0.234375 0
0.21875 0.21875 0
0.1875 0.1875 0
0.25 0.1875 0
0.203125 0.203125 0
0.21875 0.1875 0
0.234375 0.203125 0
0.21875 0.28125 0
0.1875 0.25 0
0.25 0.25 0
0.203125 0.265625 0
0.21875 0.25 0
0.234375 0.265625 0
0.21875 0.28125 0
0.1875 0.3125 0
0.1875 0.25 0
0.203125 0.296875 0
0.1875 0.28125 0
0.203125 0.265625 0
0.21875 0.28125 0
0.25 0.25 0
0.25 0.3125 0
0.234375 0.265625 0
0.25 0.28125 0
0.234375 0.296875 0
0.21875 0.28125 0
0.25 0.3125 0
0.1875 0.3125 0
0.234375 0.296875 0
0.21875 0.3125 0
0.203125 0.296875 0
0.15625 0.28125 0
0.125 0.25 0
0.1875 0.25 0
0.140625 0.265625 0
0.15625 0.25 0
0.171875 0.265625 0
0.15625 0.28125 0
0.1875 0.25 0
0.1875 0.3125 0
0.171875 0.265625 0
0.1875 0.28125 0
0.171875 0.296875 0
0.15625 0.28125 0
0.125 0.3125 0
0.125 0.25 0
0.140625 0.296875 0
0.125 0.28125 0
0.140625 0.265625 0
0.15625 0.28125 0
0.1875 0.3125 0
0.125 0.3125 0
0.171875 0.296875 0
0.15625 0.3125 0
0.140625 0.296875 0
0.21875 0.15625 0
0.25 0.125 0
0.25 0.1875 0
0.234375 0.140625 0
0.25 0.15625 0
0.234375 0.171875 0
0.21875 0.15625 0
0.25 0.1875 0
0.1875 0.1875 0
0.234375 0.171875 0
0.21875 0.1875 0
0.203125 0.171875 0
0.21875 0.15625 0
0.1875 0.125 0
0.25 0.125 0
0.203125 0.140625 0
0.21875 0.125 0
0.234375 0.140625 0
0.21875 0.15625 0
0.1875 0.1875 0
0.1875 0.125 0
0.203125 0.171875 0
0.1875 0.15625 0
0.203125 0.140625 0
0.28125 0.21875 0
0.25 0.25 0
0.25 0.1875 0
0.265625 0.234375 0
0.25 0.21875 0
0.265625 0.203125 0
0.28125 0.21875 0
0.25 0.1875 0
0.3125 0.1875 0
0.265625 0.203125 0
0.28125 0.1875 0
0.296875 0.203125 0
0.28125 0.21875 0
0.3125 0.25 0
0.25 0.25 0
0.296875 0.234375 0
0.28125 0.25 0
0.265625 0.234375 0
0.28125 0.21875 0
0.3125 0.1875 0
0.3125 0.25 0
0.296875 0.203125 0
0.3125 0.21875 0
0.296875 0.234375 0
0.28125 0.15625 0
0.25 0.1875 0
0.25 0.125 0
0.265625 0.171875 0
0.25 0.15625 0
0.265625 0.140625 0
0.28125 0.15625 0
0.3125 0.1875 0
0.25 0.1875 0
0.296875 0.171875 0
0.28125 0.1875 0
0.265625 0.171875 0
0.28125 0.15625 0
0.25 0.125 0
0.3125 0.125 0
0.265625 0.140625 0
0.28125 0.125 0
0.296875 0.140625 0
0.28125 0.15625 0
0.3125 0.125 0
0.3125 0.1875 0
0.296875 0.140625 0
0.3125 0.15625 0
0.296875 0.171875 0
0.21875 0.09375 0
0.25 0.125 0
0.1875 0.125 0
0.234375 0.109375 0
0.21875 0.125 0
0.203125 0.109375 0
0.21875 0.09375 0
0.1875 0.125 0
0.1875 0.0625 0
0.203125 0.109375 0
0.1875 0.09375 0
0.203125 0.078125 0
0.21875 0.09375 0
0.25 0.0625 0
0.25 0.125 0
0.234375 0.078125 0
0.25 0.09375 0
0.234375 0.109375 0
0.21875 0.09375 0
0.1875 0.0625 0
0.25 0.0625 0
0.203125 0.078125 0
0.21875 0.0625 0
0.234375 0.078125 0
0.15625 0.34375 0
0.125 0.375 0
0.125 0.3125 0
0.140625 0.359375 0
0.125 0.34375 0
0.140625 0.328125 0
0.15625 0.34375 0
0.125 0.3125 0
0.1875 0.3125 0
0.140625 0.328125 0
0.15625 0.3125 0
0.171875 0.328125 0
0.15625 0.34375 0
0.1875 0.375 0
0.125 0.375 0
0.171875 0.359375 0
0.15625 0.375 0
0.140625 0.359375 0
0.15625 0.34375 0
0.1875 0.3125 0
0.1875 0.375 0
0.171875 0.328125 0
0.1875 0.34375 0
0.171875 0.359375 0
0.09375 0.34375 0
0.125 0.3125 0
0.125 0.375 0
0.109375 0.328125 0
0.125 0.34375 0
0.109375 0.359375 0
0.09375 0.34375 0
0.0625 0.3125 0
0.125 0.3125 0
0.078125 0.328125 0
0.09375 0.3125 0
0.109375 0.328125 0
0.09375 0.34375 0
0.125 0.375 0
0.0625 0.375 0
0.109375 0.359375 0
0.09375 0.375 0
0.078125 0.359375 0
0.09375 0.34375 0
0.0625 0.375 0
0.0625 0.3125 0
0.078125 0.359375 0
0.0625 0.34375 0
0.078125 0.328125 0
0.21875 0.34375 0
0.25 0.3125 0
0.25 0.375 0
0.234375 0.328125 0
0.25 0.34375 0
0.234375 0.359375 0
0.21875 0.34375 0
0.1875 0.3125 0
0.25 0.3125 0
0.203125 0.328125 0
0.21875 0.3125 0
0.234375 0.328125 0
0.21875 0.34375 0
0.25 0.375 0
0.1875 0.375 0
0.234375 0.359375 0
0.21875 0.375 0
0.203125 0.359375 0
0.21875 0.34375 0
0.1875 0.375 0
0.1875 0.3125 0
0.203125 0.359375 0
0.1875 0.34375 0
0.203125 0.328125 0
0.28125 0.28125 0
0.25 0.3125 0
0.25 0.25 0
0.265625 0.296875 0
0.25 0.28125 0
[...]
POINT_DATA 6144
VECTORS stress_1 float
0.0695372 0.012147 0
0.036684 0.0258704 0
0.10789 0.0203703 0
0.0531106 0.0190087 0
0.0722873 0.0231204 0
0.0887139 0.0162587 0
0.069168 0.0125163 0
0.053505 0.0119641 0
0.0514955 0.0110589 0
0.0613365 0.0122402 0
0.0525003 0.0115115 0
0.0603318 0.0117876 0
0.0689841 0.0115939 0
0.0875201 0 0
0.0643324 0 0
0.0782521 0.00579693 0
0.0759263 0 0
0.0666582 0.00579693 0
0.0686148 0.0119631 0
0.066443 -0.00211056 0
0.0551085 0.0135676 0
0.0675289 0.00492626 0
0.0607758 0.00572854 0
0.0618617 0.0127654 0
0.0463382 0.0122495 0
0.0388905 0.0101949 0
0.0539069 0.0100739 0
0.0426144 0.0112222 0
0.0463987 0.0101344 0
0.0501225 0.0111617 0
0.0463361 0.0122473 0
0.0548918 0.0110589 0
0.0534201 0.0119641 0
0.050614 0.0116531 0
0.054156 0.0115115 0
0.0498781 0.0121057 0
0.0463318 0.0122559 0
0.0410933 0.0118111 0
0.038739 0.0103464 0
0.0437125 0.0120335 0
0.0399162 0.0110788 0
0.0425354 0.0113011 0
0.0463297 0.0122538 0
0.0531455 0.0122387 0
0.0405173 0.0112352 0
0.0497376 0.0122463 0
0.0468314 0.011737 0
0.0434235 0.0117445 0
0.0462991 0.0097992 0
0.0394999 0.0100144 0
0.0412166 0.0113007 0
0.0428995 0.00990679 0
0.0403583 0.0106576 0
0.0437578 0.01055 0
0.0463166 0.00978167 0
0.0405173 0.012 0
0.0531455 0.0109703 0
0.043417 0.0108908 0
0.0468314 0.0114852 0
0.0497311 0.010376 0
0.0462831 0.00978318 0
0.0491522 0.00671704 0
0.0398082 0.0103227 0
0.0477176 0.00825011 0
0.0444802 0.00851987 0
0.0430456 0.0100529 0
0.0463006 0.00976565 0
0.0529503 0.0107751 0
0.0500317 0.0058376 0
0.0496254 0.0102704 0
0.051491 0.00830635 0
0.0481661 0.00780163 0
0.0355807 0.0110565 0
0.0407592 0.0113007 0
0.0399613 0.0100144 0
0.03817 0.0111786 0
0.0403603 0.0106576 0
0.037771 0.0105354 0
0.0355823 0.0110581 0
0.0306974 0.0111514 0
0.0405385 0.01108 0
0.0331398 0.0111047 0
0.0356179 0.0111157 0
0.0380604 0.011069 0
0.0355779 0.0110594 0
0.0396109 0.0103648 0
0.0308032 0.0111064 0
0.0375944 0.0107121 0
0.0352071 0.0107356 0
0.0331905 0.0110829 0
0.0355794 0.0110609 0
0.0309018 0.011205 0
0.0309168 0.0109319 0
0.0332406 0.0111329 0
0.0309093 0.0110684 0
0.0332481 0.0109964 0
0.0350529 0.0106225 0
0.0395792 0.0103464 0
0.0404918 0.0118111 0
0.037316 0.0104844 0
0.0400355 0.0110788 0
0.0377723 0.0112168 0
0.0350644 0.0106109 0
0.0405385 0.0117644 0
0.0306974 0.0106573 0
0.0378014 0.0111877 0
0.0356179 0.0112109 0
0.0328809 0.0106341 0
0.0350408 0.0106104 0
0.0300824 0.00902423 0
0.0391281 0.00989528 0
0.0325616 0.00981732 0
0.0346053 0.00945976 0
0.0370845 0.0102528 0
0.0350523 0.0105989 0
0.0310732 0.0110331 0
0.0300076 0.00909902 0
0.0330628 0.010816 0
0.0305404 0.0100661 0
0.0325299 0.00984895 0
0.0563623 0.00452085 0
0.0637493 0 0
0.0547076 0 0
0.0600558 0.00226043 0
0.0592285 0 0
0.055535 0.00226043 0
0.0563547 0.00451328 0
0.0551085 0.0115357 0
0.066443 0.00269365 0
0.0557316 0.00802447 0
0.0607758 0.00711466 0
0.0613989 0.00360347 0
0.056385 0.00449817 0
0.055443 -0.000735378 0
0.0494958 0.00709583 0
0.055914 0.0018814 0
0.0524694 0.00318022 0
0.0529404 0.005797 0
0.0563774 0.0044906 0
0.0482376 0.0058376 0
0.0558691 0.0107751 0
0.0523075 0.0051641 0
0.0520533 0.00830635 0
0.0561233 0.00763285 0
0.0427553 0.00751051 0
0.0398082 0.0103137 0
0.0491522 0.0068639 0
0.0412818 0.0089121 0
0.0444802 0.0085888 0
0.0459538 0.0071872 0
0.0427524 0.00750756 0
0.0486337 0.00634541 0
0.0445553 0.00459124 0
0.0456931 0.00692648 0
0.0465945 0.00546832 0
0.0436538 0.0060494 0
0.0427543 0.00751155 0
0.0369702 0.00832069 0
0.0401949 0.00992705 0
0.0398623 0.00791612 0
0.0385825 0.00912387 0
0.0414746 0.0087193 0
0.0427513 0.0075086 0
0.0443493 0.00479719 0
0.0373 0.00865052 0
0.0435503 0.0061529 0
0.0408247 0.00672386 0
0.0400257 0.00807956 0
0.0495991 0.0027936 0
0.0494958 0.0062353 0
0.055443 0.00049469 0
0.0495474 0.00451445 0
0.0524694 0.00336499 0
0.0525211 0.00164414 0
0.0496057 0.00278702 0
0.0440231 0.00459124 0
0.0493857 0.00634541 0
0.0468144 0.00368913 0
0.0467044 0.00546832 0
0.0494957 0.00456622 0
0.0496046 0.00279908 0
0.0549483 0 0
0.0493501 0 0
0.0522764 0.00139954 0
0.0521492 0 0
0.0494774 0.00139954 0
0.0496112 0.00279251 0
0.0495779 -0.00022773 0
0.0444243 0.00499243 0
0.0495945 0.00128239 0
0.0470011 0.00238235 0
0.0470177 0.00389247 0
0.026651 0.00983924 0
0.0228237 0.00862739 0
0.0301842 0.00892135 0
0.0247373 0.00923331 0
0.026504 0.00877437 0
0.0284176 0.00938029 0
0.0266537 0.00984195 0
0.0303619 0.00909902 0
0.0308101 0.0110331 0
0.0285078 0.00947049 0
0.030586 0.0100661 0
0.0287319 0.0104375 0
0.0266535 0.00983667 0
0.0232806 0.0105502 0
0.0228043 0.00864684 0
0.024967 0.0101934 0
0.0230424 0.00959852 0
0.0247289 0.00924175 0
0.0266563 0.00983938 0
0.0308217 0.0110216 0
0.0231214 0.010391 0
0.028739 0.0104305 0
0.0269715 0.0107063 0
0.0248888 0.0101152 0
0.0270525 0.011101 0
0.0233434 0.0115207 0
0.0231943 0.0105321 0
0.025198 0.0113109 0
0.0232689 0.0110264 0
0.0251234 0.0108166 0
0.0270511 0.0111024 0
0.0231214 0.0106051 0
0.0308217 0.0107642 0
0.0250862 0.0108537 0
0.0269715 0.0106846 0
0.0289364 0.0109333 0
0.0270544 0.0111029 0
0.0308033 0.0113193 0
0.0232238 0.0114011 0
0.0289288 0.0112111 0
0.0270135 0.0113602 0
0.0251391 0.011252 0
0.027053 0.0111043 0
0.0309894 0.0109319 0
0.0309177 0.011205 0
0.0290212 0.0110181 0
0.0309535 0.0110684 0
0.0289853 0.0111546 0
0.0197244 0.00949402 0
0.0229552 0.00864684 0
0.0231642 0.0105502 0
0.0213398 0.00907043 0
0.0230597 0.00959852 0
0.0214443 0.0100221 0
0.0197253 0.00949309 0
0.0231689 0.0105455 0
0.0166104 0.0102168 0
0.0214471 0.0100193 0
0.0198896 0.0103811 0
0.0181678 0.00985494 0
0.0197234 0.0094931 0
0.0164788 0.00846134 0
0.0228689 0.00856055 0
0.0181011 0.00897722 0
0.0196738 0.00851095 0
0.0212962 0.00902683 0
0.0197244 0.00949217 0
0.0166955 0.0103019 0
0.0164766 0.00846355 0
0.0182099 0.00989702 0
0.016586 0.00938271 0
0.0181005 0.00897786 0
0.0199361 0.0110161 0
0.0232799 0.0105321 0
0.0233006 0.0115207 0
0.021608 0.0107741 0
0.0232903 0.0110264 0
0.0216184 0.0112684 0
0.0199348 0.0110147 0
0.0166104 0.0103309 0
0.0231689 0.0104211 0
0.0182726 0.0106728 0
0.0198896 0.010376 0
0.0215518 0.0107179 0
0.0199372 0.011015 0
0.0232506 0.0115707 0
0.0166703 0.0115242 0
0.0215939 0.0112929 0
0.0199604 0.0115475 0
0.0183037 0.0112696 0
0.0199358 0.0110137 0
0.0167545 0.0116084 0
0.0166384 0.0103029 0
0.0183452 0.011311 0
0.0166964 0.0109556 0
0.0182871 0.0106583 0
0.0345242 0.0101318 0
0.0308032 0.0113868 0
0.0396109 0.010021 0
0.0326637 0.0107593 0
0.0352071 0.0107039 0
0.0370675 0.0100764 0
0.0345209 0.0101351 0
0.0296764 0.0105849 0
0.0310905 0.0110995 0
0.0320986 0.01036 0
0.0303834 0.0108422 0
0.0328057 0.0106173 0
0.0345209 0.0101286 0
0.039517 0.00992705 0
0.0375075 0.00832069 0
0.037019 0.0100278 0
0.0385122 0.00912387 0
0.0360142 0.00922465 0
0.0345176 0.0101319 0
0.0372089 0.00861927 0
0.0297685 0.0106771 0
0.0358633 0.00937558 0
0.0334887 0.00964816 0
0.0321431 0.0104045 0
0.0267287 0.0113137 0
0.0232238 0.0116195 0
0.0308033 0.0110499 0
0.0249763 0.0114666 0
0.0270135 0.0113347 0
0.028766 0.0111818 0
0.0267281 0.0113131 0
0.0308529 0.0110995 0
0.0299111 0.0105849 0
0.0287905 0.0112063 0
0.030382 0.0108422 0
0.0283196 0.010949 0
0.0267278 0.0113147 0
0.0227831 0.0117458 0
0.0233714 0.0114719 0
0.0247554 0.0115303 0
0.0230772 0.0116089 0
0.0250496 0.0113933 0
0.0267271 0.0113141 0
0.0297301 0.0107659 0
0.0227636 0.0117263 0
0.0282286 0.01104 0
0.0262469 0.0112461 0
0.0247454 0.0115202 0
0.0256161 0.0110645 0
0.0216756 0.0116555 0
0.0229167 0.0117146 0
0.0236459 0.01136 0
0.0222962 0.0116851 0
0.0242664 0.0113895 0
0.0256171 0.0110635 0
0.0227636 0.0118677 0
0.0297301 0.0106081 0
0.0241903 0.0114656 0
0.0262469 0.0112379 0
0.0276736 0.0108358 0
0.0256151 0.0110635 0
0.0279409 0.0101272 0
0.0217183 0.0116982 0
0.026778 0.0105954 0
0.0248296 0.0109127 0
0.0236667 0.0113809 0
0.0256161 0.0110625 0
0.029687 0.010565 0
0.0280976 0.00997062 0
0.0276516 0.0108138 0
0.0288923 0.0102678 0
0.0268568 0.0105166 0
0.0192399 0.0121612 0
0.0227727 0.0117146 0
0.0218204 0.0116555 0
0.0210063 0.0119379 0
0.0222965 0.0116851 0
0.0205302 0.0119084 0
0.0192403 0.0121615 0
0.016437 0.0124263 0
0.022764 0.0117059 0
0.0178386 0.0122939 0
0.0196005 0.0120661 0
0.0210021 0.0119337 0
0.0192395 0.0121616 0
0.0217088 0.0117671 0
0.0158265 0.0127109 0
0.0204742 0.0119644 0
0.0187676 0.012239 0
0.017533 0.0124362 0
0.0192398 0.0121619 0
0.0158237 0.0127081 0
0.0165357 0.0123277 0
0.0175318 0.012435 0
0.0161797 0.0125179 0
0.0178877 0.0122448 0
0.0198326 0.0118361 0
0.0233161 0.0114719 0
0.0228616 0.0117458 0
0.0215743 0.011654 0
0.0230889 0.0116089 0
0.0213471 0.011791 0
0.0198326 0.0118361 0
0.022764 0.0118434 0
0.016437 0.0123077 0
0.0212983 0.0118398 0
0.0196005 0.0120756 0
0.0181348 0.0120719 0
0.0198323 0.0118359 0
0.0166703 0.0116626 0
0.0232506 0.0114064 0
0.0182513 0.0117492 0
0.0199604 0.0115345 0
0.0215415 0.0116211 0
0.0198324 0.0118358 0
0.0164795 0.0123501 0
0.0167454 0.0115875 0
0.0181559 0.012093 0
0.0166125 0.0119688 0
0.0182889 0.0117117 0
0.0323797 0.00920468 0
0.0342841 0.00758909 0
0.0279699 0.0100945 0
0.0333319 0.00839689 0
0.031127 0.00884182 0
0.0301748 0.00964961 0
0.0323811 0.00920606 0
0.027846 0.00997062 0
0.0299695 0.010565 0
0.0301135 0.00958834 0
0.0289077 0.0102678 0
0.0311753 0.00988553 0
0.0323807 0.00920368 0
0.0370456 0.00838944 0
0.0344505 0.00742275 0
0.0347132 0.00879656 0
0.0357481 0.00790609 0
0.0334156 0.00831321 0
0.0323821 0.00920506 0
0.0297685 0.0107659 0
0.0372089 0.00855272 0
0.0310753 0.0099855 0
0.0334887 0.00965932 0
0.0347955 0.00887889 0
0.023972 0.0107452 0
0.0217183 0.0117721 0
0.0279409 0.0100568 0
0.0228451 0.0112586 0
0.0248296 0.0109144 0
0.0259565 0.010401 0
0.0239714 0.0107446 0
0.0278666 0.00998247 0
0.0259023 0.00954236 0
0.025919 0.0103635 0
0.0268845 0.00976241 0
0.0249368 0.0101435 0
0.0239715 0.0107458 0
0.0201902 0.0114988 0
0.0218439 0.0116464 0
0.0220808 0.0111223 0
0.0210171 0.0115726 0
0.0229077 0.0111961 0
0.0239708 0.0107451 0
0.025785 0.00965965 0
0.0202539 0.0115624 0
0.0248779 0.0102024 0
0.0230194 0.0106111 0
0.0221124 0.0111538 0
0.0298717 0.00856162 0
0.0279699 0.0101099 0
0.0342841 0.00759931 0
0.0289208 0.00933574 0
0.031127 0.00885459 0
0.0320779 0.00808046 0
0.0298714 0.00856194 0
0.0256963 0.00954236 0
0.0280973 0.00998247 0
0.0277839 0.00905215 0
0.0268968 0.00976241 0
0.0289844 0.0092722 0
0.0298711 0.00856102 0
0.0341485 0.00746366 0
0.0314031 0.00691298 0
0.0320098 0.00801234 0
0.0327758 0.00718832 0
0.0306371 0.007737 0
0.0298708 0.00856134 0
0.0313023 0.0070138 0
0.0258036 0.00964958 0
0.0305865 0.00778757 0
0.0285529 0.00833169 0
0.0278372 0.00910546 0
0.0390566 0.00624063 0
0.0341192 0.00742275 0
0.0374501 0.00838944 0
0.0365879 0.00683169 0
0.0357847 0.00790609 0
0.0382534 0.00731503 0
0.0390564 0.00624084 0
0.0373 0.00853952 0
0.0443493 0.00500293 0
0.0381782 0.00739018 0
0.0408247 0.00677122 0
0.0417028 0.00562188 0
0.039056 0.00623999 0
0.0401955 0.00404153 0
0.0343272 0.00763075 0
0.0396257 0.00514076 0
0.0372613 0.00583614 0
0.0366916 0.00693537 0
0.0390557 0.0062402 0
0.0440592 0.00471285 0
0.0402644 0.00397267 0
0.0415575 0.00547653 0
0.0421618 0.00434276 0
0.0396601 0.00510644 0
0.0136687 0.0120901 0
0.0107804 0.0116702 0
0.0166922 0.0115352 0
0.0122246 0.0118802 0
0.0137363 0.0116027 0
0.0151805 0.0118126 0
0.0136691 0.0120905 0
0.0167445 0.0115875 0
0.0165012 0.0123501 0
0.0152068 0.011839 0
0.0166229 0.0119688 0
0.0150852 0.0122203 0
0.0136689 0.0120899 0
0.0106917 0.0126737 0
0.0108181 0.0116325 0
0.0121803 0.0123818 0
0.0107549 0.0121531 0
0.0122435 0.0118612 0
0.0136693 0.0120903 0
0.0164483 0.0124031 0
0.0106557 0.0126377 0
0.0150588 0.0122467 0
0.013552 0.0125204 0
0.0121625 0.012364 0
0.0137143 0.0109489 0
0.0166922 0.011631 0
0.0107804 0.011587 0
0.0152032 0.0112899 0
0.0137363 0.011609 0
0.0122473 0.0112679 0
0.0137136 0.0109495 0
0.0167026 0.0103029 0
0.0167148 0.0116084 0
0.0152081 0.0106262 0
0.0167087 0.0109556 0
0.0152142 0.011279 0
0.0137135 0.0109481 0
0.010834 0.0116406 0
0.010768 0.0101896 0
0.0122737 0.0112943 0
0.010801 0.0109151 0
0.0122407 0.0105688 0
0.0137128 0.0109487 0
0.0107555 0.0102021 0
0.016636 0.0102363 0
0.0122341 0.0105754 0
0.0136957 0.0102192 0
0.0151744 0.0105925 0
0.013346 0.0128013 0
0.0158293 0.0127809 0
0.0103112 0.0133323 0
0.0145876 0.0127911 0
0.0130703 0.0130566 0
0.0118286 0.0130668 0
0.0133461 0.0128011 0
0.0164685 0.0123277 0
0.015902 0.0127081 0
0.0149073 0.0125644 0
0.0161853 0.0125179 0
0.0146241 0.0127546 0
0.013346 0.0128013 0
0.0103188 0.0133399 0
0.0107155 0.0126594 0
0.0118324 0.0130706 0
0.0105172 0.0129996 0
0.0120308 0.0127303 0
0.0133461 0.0128011 0
0.0106557 0.0127192 0
0.0164483 0.0123075 0
0.0120009 0.0127602 0
0.013552 0.0125133 0
0.0148972 0.0125543 0
0.0182091 0.0122385 0
0.0158265 0.0127937 0
0.0217088 0.0116766 0
0.0170178 0.0125161 0
0.0187676 0.0122351 0
0.019959 0.0119575 0
0.0182087 0.0122389 0
0.0148471 0.0128631 0
0.0159263 0.0126939 0
0.0165279 0.012551 0
0.0153867 0.0127785 0
0.0170675 0.0124664 0
0.0182087 0.0122381 0
0.0216786 0.0116464 0
0.0203477 0.0114988 0
0.0199437 0.0119422 0
0.0210132 0.0115726 0
0.0192782 0.0118684 0
0.0182083 0.0122385 0
0.0202443 0.0116022 0
0.0148792 0.0128952 0
0.0192263 0.0119203 0
0.0175618 0.0122487 0
0.0165438 0.0125668 0
0.0127235 0.0132087 0
0.0103112 0.0133983 0
0.0158293 0.0127047 0
0.0115173 0.0133035 0
0.0130703 0.0130515 0
0.0142764 0.0129567 0
0.0127233 0.0132085 0
0.0158185 0.0126939 0
0.0149583 0.0128631 0
0.0142709 0.0129512 0
0.0153884 0.0127785 0
0.0138408 0.0130358 0
0.0127232 0.0132089 0
0.00972596 0.0137485 0
0.010383 0.0133265 0
0.0112246 0.0134787 0
0.0100545 0.0135375 0
0.0115531 0.0132677 0
0.012723 0.0132088 0
0.0148782 0.0129432 0
0.00974429 0.0137668 0
0.0138006 0.013076 0
0.0123113 0.013355 0
0.0112337 0.0134878 0
0.00800944 0.0122209 0
0.010831 0.0116325 0
0.0106955 0.0126737 0
0.00942024 0.0119267 0
0.0107633 0.0121531 0
0.00935246 0.0124473 0
0.00800959 0.0122207 0
0.0106688 0.0127004 0
0.00523568 0.0128152 0
0.00933918 0.0124606 0
0.00795223 0.0127578 0
0.00662263 0.0125179 0
0.00800917 0.0122206 0
0.00529198 0.0116699 0
0.0107974 0.0115988 0
0.00665057 0.0119453 0
0.0080447 0.0116344 0
0.0094033 0.0119097 0
0.00800932 0.0122205 0
0.00525782 0.0128373 0
0.00530803 0.0116539 0
0.00663357 0.0125289 0
0.00528293 0.0122456 0
0.00665868 0.0119372 0
0.00784428 0.0131594 0
0.0106835 0.0126594 0
0.010364 0.0133399 0
0.00926388 0.0129094 0
0.0105238 0.0129996 0
0.00910415 0.0132496 0
0.0078442 0.0131593 0
0.00523568 0.0128607 0
0.0106688 0.0126447 0
0.00653994 0.01301 0
0.00795223 0.0127527 0
0.00925649 0.012902 0
0.00784424 0.0131594 0
0.0103193 0.0133846 0
0.00507894 0.0136748 0
0.00908179 0.013272 0
0.00769914 0.0135297 0
0.00646159 0.0134171 0
0.00784416 0.0131593 0
0.00508204 0.0136779 0
0.00526884 0.0128276 0
0.0064631 0.0134186 0
0.00517544 0.0132527 0
0.0065565 0.0129934 0
0.0136123 0.00934055 0
0.0107076 0.00840754 0
0.0165071 0.00841753 0
0.01216 0.00887404 0
0.0136074 0.00841253 0
0.0150597 0.00887904 0
0.0136127 0.00934091 0
0.0165532 0.00846355 0
0.0166368 0.0103019 0
0.0150829 0.00890223 0
0.016595 0.00938271 0
0.0151247 0.00982139 0
0.0136127 0.00934018 0
0.0108013 0.0101832 0
0.0107096 0.00840549 0
0.012207 0.00976167 0
0.0107555 0.00929432 0
0.0121612 0.00887283 0
0.0136131 0.00934054 0
0.016636 0.0103026 0
0.0107555 0.0101373 0
0.0151245 0.00982157 0
0.0136957 0.0102199 0
0.0121843 0.00973891 0
0.00803239 0.0109174 0
0.0108112 0.0101896 0
0.0108064 0.0116406 0
0.00942177 0.0105535 0
0.0108088 0.0109151 0
0.00941941 0.011279 0
0.00803198 0.010917 0
0.00528488 0.0101445 0
0.0107726 0.010151 0
0.00665843 0.0105308 0
0.00802874 0.0101478 0
0.00940229 0.010534 0
0.00803273 0.0109171 0
0.0107974 0.0116496 0
0.00529198 0.0116257 0
0.00941507 0.0112834 0
0.0080447 0.0116376 0
0.00666235 0.0112714 0
0.00803232 0.0109167 0
0.00532301 0.0116567 0
0.00528787 0.0101416 0
0.00667766 0.0112867 0
0.00530544 0.0108991 0
0.00666009 0.0105291 0
0.00799135 0.00928136 0
0.0107479 0.00840549 0
0.0107738 0.0101832 0
0.00936962 0.00884342 0
0.0107609 0.00929432 0
0.00938258 0.00973226 0
0.0079915 0.00928121 0
0.0107726 0.0101844 0
0.00528488 0.0101099 0
0.00938205 0.00973279 0
0.00802874 0.0101471 0
0.00663819 0.00969555 0
0.0079912 0.00928121 0
0.0052726 0.00839606 0
0.0107241 0.00838173 0
0.0066319 0.00883864 0
0.00799837 0.0083889 0
0.00935767 0.00883147 0
0.00799135 0.00928106 0
0.00530853 0.0101335 0
0.0052743 0.00839436 0
0.00664994 0.0097073 0
0.00529142 0.00926395 0
0.00663283 0.00883771 0
0.0447769 0.00219165 0
0.0493977 0 0
0.0450144 0 0
0.0470873 0.00109582 0
0.0472061 0 0
0.0448957 0.00109582 0
0.0447754 0.00219009 0
0.0444243 0.00463153 0
0.0495779 0.000180152 0
0.0445998 0.00341081 0
0.0470011 0.00240584 0
0.0471766 0.00118512 0
0.0447785 0.00219005 0
0.0451027 -8.82857e-05 0
0.0402139 0.00415216 0
0.0449406 0.00105088 0
0.0426583 0.00203194 0
0.0424962 0.00317111 0
0.044777 0.0021885 0
0.0400344 0.00397267 0
0.044343 0.00471285 0
0.0424057 0.00308058 0
0.0421887 0.00434276 0
0.04456 0.00345068 0
0.040714 0.00194132 0
0.0402139 0.00398006 0
0.0451027 9.14595e-05 0
0.040464 0.00296069 0
0.0426583 0.00203576 0
0.0429084 0.00101639 0
0.0407147 0.00194068 0
0.0363948 0.00366087 0
0.0401841 0.00400982 0
0.0385547 0.00280078 0
0.0382895 0.00383534 0
0.0404494 0.00297525 0
0.0407148 0.00194208 0
0.0450113 0 0
0.0411271 0 0
0.042863 0.000971038 0
0.0430692 0 0
0.0409209 0.000971038 0
0.0407154 0.00194144 0
0.0411474 -2.0299e-05 0
0.0364985 0.00376458 0
0.0409314 0.000960568 0
0.038823 0.00187214 0
0.038607 0.00285301 0
0.035581 0.00558282 0
0.0343272 0.00753573 0
0.0401955 0.00417511 0
0.0349541 0.00655927 0
0.0372613 0.00585542 0
0.0378883 0.00487896 0
0.035581 0.0055828 0
0.0400302 0.00400982 0
0.0365353 0.00366087 0
0.0378056 0.00479631 0
0.0382828 0.00383534 0
0.0360582 0.00462183 0
0.0355813 0.00558251 0
0.0311876 0.00691298 0
0.0343993 0.00746366 0
0.0333845 0.00624775 0
0.0327935 0.00718832 0
0.0349903 0.00652309 0
0.0355813 0.00558249 0
0.036495 0.00370115 0
0.0313217 0.00704705 0
0.0360382 0.00464182 0
0.0339084 0.0053741 0
0.0334515 0.00631477 0
0.0272505 0.00815683 0
0.0312 0.00693567 0
0.0284362 0.00661421 0
0.0292252 0.00754625 0
0.0298181 0.00677494 0
0.0278434 0.00738552 0
0.0272507 0.00815706 0
0.0258036 0.00964237 0
0.0313023 0.00703795 0
0.0265271 0.00889971 0
0.0285529 0.00834016 0
0.0292765 0.00759751 0
0.0272504 0.00815688 0
0.028366 0.00668446 0
0.0234751 0.00934422 0
0.0278082 0.00742067 0
0.0259206 0.00801434 0
0.0253628 0.00875055 0
0.0272507 0.00815711 0
0.0233898 0.00925887 0
0.0258902 0.00955575 0
0.0253202 0.00870799 0
0.02464 0.00940731 0
0.0265704 0.00885643 0
0.0323068 0.0052315 0
0.0282833 0.00661421 0
0.0313702 0.00693567 0
0.030295 0.00592285 0
0.0298268 0.00677494 0
0.0318385 0.00608358 0
0.0323066 0.0052317 0
0.0313217 0.00698416 0
0.036495 0.00378054 0
0.0318141 0.00610793 0
0.0339084 0.00538235 0
0.0344008 0.00450612 0
0.0323068 0.00523156 0
0.0330545 0.00352404 0
0.0283761 0.00670705 0
0.0326807 0.0043778 0
0.0307153 0.00511554 0
0.0303415 0.00596931 0
0.0323066 0.00523177 0
0.036389 0.00367451 0
0.0330893 0.00348931 0
0.0343478 0.00445314 0
0.0347391 0.00358191 0
0.032698 0.00436054 0
0.0220352 0.010486 0
0.0184635 0.0113617 0
0.0203529 0.0114997 0
0.0202494 0.0109239 0
0.0194082 0.0114307 0
0.0211941 0.0109929 0
0.0220355 0.0104858 0
0.0202539 0.0115988 0
0.025785 0.00963081 0
0.0211447 0.0110423 0
0.0230194 0.0106148 0
0.0239102 0.0100583 0
0.0220349 0.0104857 0
0.0234636 0.00934891 0
0.0185284 0.0114266 0
0.0227492 0.0099173 0
0.020996 0.0103878 0
0.0202816 0.0109562 0
0.0220351 0.0104854 0
0.0257099 0.00955575 0
0.0235537 0.00925887 0
0.0238725 0.0100206 0
0.0246318 0.00940731 0
0.0227944 0.00987215 0
0.0168614 0.0122227 0
0.0201961 0.0114997 0
0.0186121 0.0113617 0
0.0185287 0.0118612 0
0.0194041 0.0114307 0
0.0177368 0.0117922 0
0.0168617 0.012223 0
0.0148792 0.0129481 0
0.0202443 0.011548 0
0.0158705 0.0125856 0
0.0175618 0.0122481 0
0.018553 0.0118855 0
0.0168611 0.012223 0