# vtk DataFile Version 1.0
2D Unstructured Grid of Linear Triangles
ASCII

DATASET UNSTRUCTURED_GRID
POINTS 3072 float
0 0.0625 0
0 0 0
0.0625 0.0625 0
0 0.03125 0
0.03125 0.03125 0
0.03125 0.0625 0
0 0.0625 0
0.0625 0.0625 0
0 0.125 0
0.03125 0.0625 0
0.03125 0.09375 0
0 0.09375 0
0.0625 0.125 0
0.0625 0.0625 0
0.125 0.125 0
0.0625 0.09375 0
0.09375 0.09375 0
0.09375 0.125 0
0.0625 0.125 0
0 0.125 0
0.0625 0.0625 0
0.03125 0.125 0
0.03125 0.09375 0
0.0625 0.09375 0
0.0625 0.125 0
0.125 0.125 0
0.0625 0.1875 0
0.09375 0.125 0
0.09375 0.15625 0
0.0625 0.15625 0
0.0625 0.125 0
0.0625 0.1875 0
0 0.125 0
0.0625 0.15625 0
0.03125 0.15625 0
0.03125 0.125 0
0.0625 0 0
0.0625 0.0625 0
0 0 0
0.0625 0.03125 0
0.03125 0.03125 0
0.03125 0 0
0.0625 0 0
0.125 0 0
0.0625 0.0625 0
0.09375 0 0
0.09375 0.03125 0
0.0625 0.03125 0
0.125 0.0625 0
0.125 0.125 0
0.0625 0.0625 0
0.125 0.09375 0
0.09375 0.09375 0
0.09375 0.0625 0
0.125 0.0625 0
0.0625 0.0625 0
0.125 0 0
0.09375 0.0625 0
0.09375 0.03125 0
0.125 0.03125 0
0.125 0.0625 0
0.1875 0.0625 0
0.125 0.125 0
0.15625 0.0625 0
0.15625 0.09375 0
0.125 0.09375 0
0.125 0.0625 0
0.125 0 0
0.1875 0.0625 0
0.125 0.03125 0
0.15625 0.03125 0
0.15625 0.0625 0
0 0.1875 0
0.0625 0.1875 0
0 0.25 0
0.03125 0.1875 0
0.03125 0.21875 0
0 0.21875 0
0 0.1875 0
0 0.125 0
0.0625 0.1875 0
0 0.15625 0
0.03125 0.15625 0
0.03125 0.1875 0
0.0625 0.25 0
0 0.25 0
0.0625 0.1875 0
0.03125 0.25 0
0.03125 0.21875 0
0.0625 0.21875 0
0.0625 0.25 0
0.0625 0.1875 0
0.125 0.25 0
0.0625 0.21875 0
0.09375 0.21875 0
0.09375 0.25 0
0.0625 0.25 0
0.0625 0.3125 0
0 0.25 0
0.0625 0.28125 0
0.03125 0.28125 0
0.03125 0.25 0
0.0625 0.25 0
0.125 0.25 0
0.0625 0.3125 0
0.09375 0.25 0
0.09375 0.28125 0
0.0625 0.28125 0
0.125 0.1875 0
0.0625 0.1875 0
0.125 0.125 0
0.09375 0.1875 0
0.09375 0.15625 0
0.125 0.15625 0
0.125 0.1875 0
0.125 0.25 0
0.0625 0.1875 0
0.125 0.21875 0
0.09375 0.21875 0
0.09375 0.1875 0
0.125 0.1875 0
0.125 0.125 0
0.1875 0.1875 0
0.125 0.15625 0
0.15625 0.15625 0
0.15625 0.1875 0
0.125 0.1875 0
0.1875 0.1875 0
0.125 0.25 0
0.15625 0.1875 0
0.15625 0.21875 0
0.125 0.21875 0
0.1875 0.25 0
0.1875 0.1875 0
0.25 0.25 0
0.1875 0.21875 0
0.21875 0.21875 0
0.21875 0.25 0
0.1875 0.25 0
0.125 0.25 0
0.1875 0.1875 0
0.15625 0.25 0
0.15625 0.21875 0
0.1875 0.21875 0
0.1875 0.25 0
0.25 0.25 0
0.1875 0.3125 0
0.21875 0.25 0
0.21875 0.28125 0
0.1875 0.28125 0
0.1875 0.25 0
0.1875 0.3125 0
0.125 0.25 0
0.1875 0.28125 0
0.15625 0.28125 0
0.15625 0.25 0
0.25 0.1875 0
0.25 0.25 0
0.1875 0.1875 0
0.25 0.21875 0
0.21875 0.21875 0
0.21875 0.1875 0
0.25 0.1875 0
0.1875 0.1875 0
0.25 0.125 0
0.21875 0.1875 0
0.21875 0.15625 0
0.25 0.15625 0
0.25 0.1875 0
0.3125 0.1875 0
0.25 0.25 0
0.28125 0.1875 0
0.28125 0.21875 0
0.25 0.21875 0
0.25 0.1875 0
0.25 0.125 0
0.3125 0.1875 0
0.25 0.15625 0
0.28125 0.15625 0
0.28125 0.1875 0
0.1875 0.125 0
0.1875 0.1875 0
0.125 0.125 0
0.1875 0.15625 0
0.15625 0.15625 0
0.15625 0.125 0
0.1875 0.125 0
0.25 0.125 0
0.1875 0.1875 0
0.21875 0.125 0
0.21875 0.15625 0
0.1875 0.15625 0
0.1875 0.125 0
0.125 0.125 0
0.1875 0.0625 0
0.15625 0.125 0
0.15625 0.09375 0
0.1875 0.09375 0
0.1875 0.125 0
0.1875 0.0625 0
0.25 0.125 0
0.1875 0.09375 0
0.21875 0.09375 0
0.21875 0.125 0
0.125 0.3125 0
0.1875 0.3125 0
0.125 0.375 0
0.15625 0.3125 0
0.15625 0.34375 0
0.125 0.34375 0
0.125 0.3125 0
0.125 0.25 0
0.1875 0.3125 0
0.125 0.28125 0
0.15625 0.28125 0
0.15625 0.3125 0
0.125 0.3125 0
0.125 0.375 0
0.0625 0.3125 0
0.125 0.34375 0
0.09375 0.34375 0
0.09375 0.3125 0
0.125 0.3125 0
0.0625 0.3125 0
0.125 0.25 0
0.09375 0.3125 0
0.09375 0.28125 0
0.125 0.28125 0
0.25 0.3125 0
0.1875 0.3125 0
0.25 0.25 0
0.21875 0.3125 0
0.21875 0.28125 0
0.25 0.28125 0
0.25 0.3125 0
0.25 0.375 0
0.1875 0.3125 0
0.25 0.34375 0
0.21875 0.34375 0
0.21875 0.3125 0
0.25 0.3125 0
0.25 0.25 0
0.3125 0.3125 0
0.25 0.28125 0
0.28125 0.28125 0
0.28125 0.3125 0
0.25 0.3125 0
0.3125 0.3125 0
0.25 0.375 0
0.28125 0.3125 0
0.28125 0.34375 0
0.25 0.34375 0
0.1875 0.375 0
0.125 0.375 0
0.1875 0.3125 0
0.15625 0.375 0
0.15625 0.34375 0
0.1875 0.34375 0
0.1875 0.375 0
0.1875 0.3125 0
0.25 0.375 0
0.1875 0.34375 0
0.21875 0.34375 0
0.21875 0.375 0
0.1875 0.375 0
0.1875 0.4375 0
0.125 0.375 0
0.1875 0.40625 0
0.15625 0.40625 0
0.15625 0.375 0
0.1875 0.375 0
0.25 0.375 0
0.1875 0.4375 0
0.21875 0.375 0
0.21875 0.40625 0
0.1875 0.40625 0
0 0.3125 0
0 0.25 0
0.0625 0.3125 0
0 0.28125 0
0.03125 0.28125 0
0.03125 0.3125 0
0 0.3125 0
0.0625 0.3125 0
0 0.375 0
0.03125 0.3125 0
0.03125 0.34375 0
0 0.34375 0
0.0625 0.375 0
0.0625 0.3125 0
0.125 0.375 0
0.0625 0.34375 0
0.09375 0.34375 0
0.09375 0.375 0
0.0625 0.375 0
0 0.375 0
0.0625 0.3125 0
0.03125 0.375 0
0.03125 0.34375 0
0.0625 0.34375 0
0.0625 0.375 0
0.125 0.375 0
0.0625 0.4375 0
0.09375 0.375 0
0.09375 0.40625 0
0.0625 0.40625 0
0.0625 0.375 0
0.0625 0.4375 0
0 0.375 0
0.0625 0.40625 0
0.03125 0.40625 0
0.03125 0.375 0
0.1875 0 0
0.25 0 0
0.1875 0.0625 0
0.21875 0 0
0.21875 0.03125 0
0.1875 0.03125 0
0.1875 0 0
0.1875 0.0625 0
0.125 0 0
0.1875 0.03125 0
0.15625 0.03125 0
0.15625 0 0
0.25 0.0625 0
0.1875 0.0625 0
0.25 0 0
0.21875 0.0625 0
0.21875 0.03125 0
0.25 0.03125 0
0.25 0.0625 0
0.25 0.125 0
0.1875 0.0625 0
0.25 0.09375 0
0.21875 0.09375 0
0.21875 0.0625 0
0.25 0.0625 0
0.25 0 0
0.3125 0.0625 0
0.25 0.03125 0
0.28125 0.03125 0
0.28125 0.0625 0
0.25 0.0625 0
0.3125 0.0625 0
0.25 0.125 0
0.28125 0.0625 0
0.28125 0.09375 0
0.25 0.09375 0
0.3125 0.125 0
0.375 0.125 0
0.3125 0.1875 0
0.34375 0.125 0
0.34375 0.15625 0
0.3125 0.15625 0
0.3125 0.125 0
0.3125 0.1875 0
0.25 0.125 0
0.3125 0.15625 0
0.28125 0.15625 0
0.28125 0.125 0
0.3125 0.125 0
0.3125 0.0625 0
0.375 0.125 0
0.3125 0.09375 0
0.34375 0.09375 0
0.34375 0.125 0
0.3125 0.125 0
0.25 0.125 0
0.3125 0.0625 0
0.28125 0.125 0
0.28125 0.09375 0
0.3125 0.09375 0
0.3125 0.25 0
0.25 0.25 0
0.3125 0.1875 0
0.28125 0.25 0
0.28125 0.21875 0
0.3125 0.21875 0
0.3125 0.25 0
0.3125 0.1875 0
0.375 0.25 0
0.3125 0.21875 0
0.34375 0.21875 0
0.34375 0.25 0
0.3125 0.25 0
0.3125 0.3125 0
0.25 0.25 0
0.3125 0.28125 0
0.28125 0.28125 0
0.28125 0.25 0
0.3125 0.25 0
0.375 0.25 0
0.3125 0.3125 0
0.34375 0.25 0
0.34375 0.28125 0
0.3125 0.28125 0
0.375 0.1875 0
0.3125 0.1875 0
0.375 0.125 0
0.34375 0.1875 0
0.34375 0.15625 0
0.375 0.15625 0
0.375 0.1875 0
0.375 0.25 0
0.3125 0.1875 0
0.375 0.21875 0
0.34375 0.21875 0
0.34375 0.1875 0
0.375 0.1875 0
0.375 0.125 0
0.4375 0.1875 0
0.375 0.15625 0
0.40625 0.15625 0
0.40625 0.1875 0
0.375 0.1875 0
0.4375 0.1875 0
0.375 0.25 0
0.40625 0.1875 0
0.40625 0.21875 0
0.375 0.21875 0
0.3125 0 0
0.3125 0.0625 0
0.25 0 0
0.3125 0.03125 0
0.28125 0.03125 0
0.28125 0 0
0.3125 0 0
0.375 0 0
0.3125 0.0625 0
0.34375 0 0
0.34375 0.03125 0
0.3125 0.03125 0
0.375 0.0625 0
0.375 0.125 0
0.3125 0.0625 0
0.375 0.09375 0
0.34375 0.09375 0
0.34375 0.0625 0
0.375 0.0625 0
0.3125 0.0625 0
0.375 0 0
0.34375 0.0625 0
0.34375 0.03125 0
0.375 0.03125 0
0.375 0.0625 0
0.4375 0.0625 0
0.375 0.125 0
0.40625 0.0625 0
0.40625 0.09375 0
0.375 0.09375 0
0.375 0.0625 0
0.375 0 0
0.4375 0.0625 0
0.375 0.03125 0
0.40625 0.03125 0
0.40625 0.0625 0
0 0.4375 0
0.0625 0.4375 0
0 0.5 0
0.03125 0.4375 0
0.03125 0.46875 0
0 0.46875 0
0 0.4375 0
0 0.375 0
0.0625 0.4375 0
0 0.40625 0
0.03125 0.40625 0
0.03125 0.4375 0
0.0625 0.5 0
0 0.5 0
0.0625 0.4375 0
0.03125 0.5 0
0.03125 0.46875 0
0.0625 0.46875 0
0.0625 0.5 0
0.0625 0.4375 0
0.125 0.5 0
0.0625 0.46875 0
0.09375 0.46875 0
0.09375 0.5 0
0.0625 0.5 0
0.0625 0.5625 0
0 0.5 0
0.0625 0.53125 0
0.03125 0.53125 0
0.03125 0.5 0
0.0625 0.5 0
0.125 0.5 0
0.0625 0.5625 0
0.09375 0.5 0
0.09375 0.53125 0
0.0625 0.53125 0
0.125 0.4375 0
0.0625 0.4375 0
0.125 0.375 0
0.09375 0.4375 0
0.09375 0.40625 0
0.125 0.40625 0
0.125 0.4375 0
0.125 0.5 0
0.0625 0.4375 0
0.125 0.46875 0
0.09375 0.46875 0
0.09375 0.4375 0
0.125 0.4375 0
0.125 0.375 0
0.1875 0.4375 0
0.125 0.40625 0
0.15625 0.40625 0
0.15625 0.4375 0
0.125 0.4375 0
0.1875 0.4375 0
0.125 0.5 0
0.15625 0.4375 0
0.15625 0.46875 0
0.125 0.46875 0
0.1875 0.5 0
0.1875 0.4375 0
0.25 0.5 0
0.1875 0.46875 0
0.21875 0.46875 0
0.21875 0.5 0
0.1875 0.5 0
0.125 0.5 0
0.1875 0.4375 0
0.15625 0.5 0
0.15625 0.46875 0
0.1875 0.46875 0
0.1875 0.5 0
0.25 0.5 0
0.1875 0.5625 0
0.21875 0.5 0
0.21875 0.53125 0
0.1875 0.53125 0
0.1875 0.5 0
0.1875 0.5625 0
0.125 0.5 0
0.1875 0.53125 0
0.15625 0.53125 0
0.15625 0.5 0
0.25 0.4375 0
0.25 0.5 0
0.1875 0.4375 0
0.25 0.46875 0
0.21875 0.46875 0
0.21875 0.4375 0
0.25 0.4375 0
0.1875 0.4375 0
0.25 0.375 0
0.21875 0.4375 0
0.21875 0.40625 0
0.25 0.40625 0
0.25 0.4375 0
0.3125 0.4375 0
0.25 0.5 0
0.28125 0.4375 0
0.28125 0.46875 0
0.25 0.46875 0
0.25 0.4375 0
0.25 0.375 0
0.3125 0.4375 0
0.25 0.40625 0
0.28125 0.40625 0
0.28125 0.4375 0
0.125 0.5625 0
0.125 0.625 0
0.0625 0.5625 0
0.125 0.59375 0
0.09375 0.59375 0
0.09375 0.5625 0
0.125 0.5625 0
0.0625 0.5625 0
0.125 0.5 0
0.09375 0.5625 0
0.09375 0.53125 0
0.125 0.53125 0
0.125 0.5625 0
0.1875 0.5625 0
0.125 0.625 0
0.15625 0.5625 0
0.15625 0.59375 0
0.125 0.59375 0
0.125 0.5625 0
0.125 0.5 0
0.1875 0.5625 0
0.125 0.53125 0
0.15625 0.53125 0
0.15625 0.5625 0
0 0.5625 0
0 0.5 0
0.0625 0.5625 0
0 0.53125 0
0.03125 0.53125 0
0.03125 0.5625 0
0 0.5625 0
0.0625 0.5625 0
0 0.625 0
0.03125 0.5625 0
0.03125 0.59375 0
0 0.59375 0
0.0625 0.625 0
0.0625 0.5625 0
0.125 0.625 0
0.0625 0.59375 0
0.09375 0.59375 0
0.09375 0.625 0
0.0625 0.625 0
0 0.625 0
0.0625 0.5625 0
0.03125 0.625 0
0.03125 0.59375 0
0.0625 0.59375 0
0.0625 0.625 0
0.125 0.625 0
0.0625 0.6875 0
0.09375 0.625 0
0.09375 0.65625 0
0.0625 0.65625 0
0.0625 0.625 0
0.0625 0.6875 0
0 0.625 0
0.0625 0.65625 0
0.03125 0.65625 0
0.03125 0.625 0
0.25 0.5625 0
0.1875 0.5625 0
0.25 0.5 0
0.21875 0.5625 0
0.21875 0.53125 0
0.25 0.53125 0
0.25 0.5625 0
0.25 0.625 0
0.1875 0.5625 0
0.25 0.59375 0
0.21875 0.59375 0
0.21875 0.5625 0
0.25 0.5625 0
0.25 0.5 0
0.3125 0.5625 0
0.25 0.53125 0
0.28125 0.53125 0
0.28125 0.5625 0
0.25 0.5625 0
0.3125 0.5625 0
0.25 0.625 0
0.28125 0.5625 0
[...]
POINT_DATA 3072
VECTORS stress_1 float
0.0234016 0.0210734 0
0.13162 0.0498346 0
0.0521628 0.0183548 0
0.0775106 0.035454 0
0.0918912 0.0340947 0
0.0377822 0.0197141 0
0.048524 0.0210734 0
0.0567329 0.0183548 0
0.0407015 0.0128645 0
0.0526284 0.0197141 0
0.0487172 0.0156097 0
0.0446128 0.016969 0
0.0413624 0.0149122 0
0.0570656 0.0149576 0
0.0414079 0.0113426 0
0.049214 0.0149349 0
0.0492367 0.0131501 0
0.0413852 0.0131274 0
0.0413624 0.0147955 0
0.0381359 0.0154302 0
0.0570656 0.018022 0
0.0397492 0.0151128 0
0.0476007 0.0167261 0
0.049214 0.0164088 0
0.0415958 0.0149122 0
0.043123 0.0113426 0
0.0315391 0.013385 0
0.0423594 0.0131274 0
0.0373311 0.0123638 0
0.0365675 0.0141486 0
0.0415958 0.0147955 0
0.0315391 0.0119544 0
0.0387548 0.0154302 0
0.0365675 0.013375 0
0.035147 0.0136923 0
0.0401753 0.0151128 0
0.0527508 0 0
0.0628423 0.0290342 0
0.081785 0 0
0.0577965 0.0145171 0
0.0723137 0.0145171 0
0.0672679 0 0
0.0527508 0 0
0.0442244 0 0
0.0628423 0.00852635 0
0.0484876 0 0
0.0535334 0.00426318 0
0.0577965 0.00426318 0
0.0488453 0.00682681 0
0.0424024 0.0123371 0
0.0543556 0.0122476 0
0.0456238 0.00958193 0
0.048379 0.0122923 0
0.0516005 0.00953721 0
0.0492485 0.00682681 0
0.0591211 0.0122476 0
0.0472701 -0.00304572 0
0.0541848 0.00953721 0
0.0531956 0.00460094 0
0.0482593 0.00189055 0
0.0488453 0.00662522 0
0.043816 0.00339515 0
0.0424024 0.0116545 0
0.0463307 0.00501019 0
0.0431092 0.00752484 0
0.0456238 0.00913988 0
0.0492485 0.00662522 0
0.0472701 0.000459108 0
0.0430824 0.00339515 0
0.0482593 0.00354216 0
0.0451763 0.00192713 0
0.0461655 0.00501019 0
0.0285077 0.00735445 0
0.0306369 0.013065 0
0.0216288 0.00522522 0
0.0295723 0.0102097 0
0.0261329 0.0091451 0
0.0250683 0.00628983 0
0.0269928 0.00735445 0
0.0363359 0.0130113 0
0.0326497 0.013065 0
0.0316644 0.0101829 0
0.0344928 0.0130382 0
0.0298213 0.0102097 0
0.0233397 0.0100239 0
0.0210326 0.00582145 0
0.0313709 0.012331 0
0.0221862 0.00792268 0
0.0262018 0.00907624 0
0.0273553 0.0111775 0
0.0233397 0.0100365 0
0.0313709 0.0118552 0
0.0251585 0.0122909 0
0.0273553 0.0109459 0
0.0282647 0.0120731 0
0.0242491 0.0111637 0
0.0233648 0.0100239 0
0.0166562 0.00845176 0
0.0217927 0.00582145 0
0.0200105 0.00923783 0
0.0192244 0.0071366 0
0.0225788 0.00792268 0
0.0233648 0.0100365 0
0.0246494 0.0122909 0
0.0166562 0.00875185 0
0.0240071 0.0111637 0
0.0206528 0.0105214 0
0.0200105 0.00939415 0
0.0324615 0.0123605 0
0.032387 0.0125371 0
0.0420305 0.0124351 0
0.0324243 0.0124488 0
0.0372088 0.0124861 0
0.037246 0.0123978 0
0.0324983 0.0123605 0
0.0247826 0.011915 0
0.0320528 0.0125371 0
0.0286405 0.0121378 0
0.0284177 0.0122261 0
0.0322756 0.0124488 0
0.0324615 0.0123789 0
0.0420305 0.0115537 0
0.0316363 0.0109922 0
0.037246 0.0119663 0
0.0368334 0.011273 0
0.0320489 0.0116856 0
0.0324983 0.0123789 0
0.0323382 0.0109922 0
0.0247826 0.012539 0
0.0324183 0.0116856 0
0.0285604 0.0117656 0
0.0286405 0.012459 0
0.0244573 0.0122252 0
0.031849 0.0111059 0
0.023338 0.0119184 0
0.0281531 0.0116656 0
0.0275935 0.0115122 0
0.0238977 0.0120718 0
0.0244573 0.0122207 0
0.0251966 0.0121251 0
0.031849 0.0114814 0
0.0248269 0.0121729 0
0.0285228 0.0118032 0
0.0281531 0.0118511 0
0.0244665 0.0122252 0
0.0237252 0.0119184 0
0.0179071 0.0129665 0
0.0240958 0.0120718 0
0.0208162 0.0124425 0
0.0211868 0.0125959 0
0.0244665 0.0122207 0
0.0179071 0.012655 0
0.0249008 0.0121251 0
0.0211868 0.0124379 0
0.021404 0.01239 0
0.0246836 0.0121729 0
0.0294277 0.0098859 0
0.0234858 0.0120662 0
0.0316079 0.0108649 0
0.0264567 0.010976 0
0.0275469 0.0114655 0
0.0305178 0.0103754 0
0.029451 0.0098859 0
0.0323659 0.0108649 0
0.0350673 0.006971 0
0.0309084 0.0103754 0
0.0337166 0.00891796 0
0.0322592 0.00842845 0
0.0294277 0.00987424 0
0.0271647 0.00913646 0
0.0234858 0.0121372 0
0.0282962 0.00950535 0
0.0253252 0.0106368 0
0.0264567 0.0110057 0
0.029451 0.00987424 0
0.0350673 0.0070632 0
0.02664 0.00913646 0
0.0322592 0.00846872 0
0.0308536 0.00809983 0
0.0280455 0.00950535 0
0.0384445 0.00829941 0
0.0319348 0.0112907 0
0.0414357 0.0109589 0
0.0351897 0.00979506 0
0.0366853 0.0111248 0
0.0399401 0.00962916 0
0.0384445 0.00825997 0
0.0354085 0.00662985 0
0.0319348 0.0112959 0
0.0369265 0.00744491 0
0.0336717 0.0089629 0
0.0351897 0.00977795 0
0.0385233 0.00829941 0
0.043098 0.0109589 0
0.0434864 0.0037248 0
0.0408107 0.00962916 0
0.0432922 0.00734185 0
0.0410049 0.0060121 0
0.0385233 0.00825997 0
0.0434864 0.00427184 0
0.0345352 0.00662985 0
0.0410049 0.0062659 0
0.0390108 0.00545085 0
0.0365293 0.00744491 0
0.0175626 0.0113615 0
0.0179138 0.012813 0
0.0113736 0.0110103 0
0.0177382 0.0120872 0
0.0146437 0.0119116 0
0.0144681 0.0111859 0
0.0175398 0.0113615 0
0.0246625 0.0118868 0
0.0180651 0.012813 0
0.0211012 0.0116241 0
0.0213638 0.0123499 0
0.0178024 0.0120872 0
0.0175626 0.0113501 0
0.0113736 0.0107786 0
0.0169911 0.00879593 0
0.0144681 0.0110644 0
0.0141823 0.00978729 0
0.0172769 0.010073 0
0.0175398 0.0113501 0
0.0166121 0.00879593 0
0.0246625 0.0122778 0
0.017076 0.010073 0
0.0206373 0.0105369 0
0.0211012 0.011814 0
0.0171994 0.0131295 0
0.0181405 0.0127331 0
0.0234553 0.0121883 0
0.0176699 0.0129313 0
0.0207979 0.0124607 0
0.0203273 0.0126589 0
0.0172031 0.0131295 0
0.0113593 0.0138433 0
0.017917 0.0127331 0
0.0142812 0.0134864 0
0.0146381 0.0132882 0
0.01756 0.0129313 0
0.0171994 0.0131313 0
0.0234553 0.012004 0
0.016072 0.0132289 0
0.0203273 0.0125677 0
0.0197637 0.0126165 0
0.0166357 0.0131801 0
0.0172031 0.0131313 0
0.0163329 0.0132289 0
0.0113593 0.0140015 0
0.016768 0.0131801 0
0.0138461 0.0136152 0
0.0142812 0.0135664 0
0.0115165 0.012767 0
0.0114006 0.0109833 0
0.0178438 0.0128829 0
0.0114586 0.0118751 0
0.0146222 0.0119331 0
0.0146802 0.0128249 0
0.0115165 0.0127733 0
0.0178438 0.01266 0
0.0114033 0.0138874 0
0.0146802 0.0127166 0
0.0146236 0.0132737 0
0.0114599 0.0133303 0
0.0115291 0.012767 0
0.00571039 0.0127722 0
0.0115343 0.0109833 0
0.00861973 0.0127696 0
0.00862236 0.0118778 0
0.0115317 0.0118751 0
0.0115291 0.0127733 0
0.011395 0.0138874 0
0.00571039 0.0129073 0
0.011462 0.0133303 0
0.00855269 0.0133974 0
0.00861973 0.0128403 0
0.0154028 0.00377926 0
0.0213444 0.00537315 0
0.0169967 0.00879227 0
0.0183736 0.00457621 0
0.0191705 0.00708271 0
0.0161998 0.00628577 0
0.0156587 0.00377926 0
0.0164252 0.00879227 0
0.0100191 0.00301278 0
0.0160419 0.00628577 0
0.0132221 0.00590253 0
0.0128389 0.00339602 0
0.010767 0.00762076 0
0.0166598 0.00846458 0
0.0116108 0.0110159 0
0.0137134 0.00804267 0
0.0141353 0.00974023 0
0.0111889 0.00931832 0
0.010767 0.00762029 0
0.00982955 0.00320228 0
0.0166598 0.0085577 0
0.0102983 0.00541129 0
0.0132447 0.00587999 0
0.0137134 0.00808899 0
0.0107679 0.00762076 0
0.0112354 0.0110159 0
0.00525358 0.00715326 0
0.0110016 0.00931832 0
0.00824449 0.00908457 0
0.00801074 0.00738701 0
0.0107679 0.00762029 0
0.00525358 0.00706668 0
0.0102143 0.00320228 0
0.00801074 0.00734349 0
0.00773394 0.00513448 0
0.0104911 0.00541129 0
0.0432403 0 0
0.0406607 0 0
0.043258 0.00257958 0
0.0419505 0 0
0.0419594 0.00128979 0
0.0432491 0.00128979 0
0.0432403 0 0
0.043258 0.00357071 0
0.046811 0 0
0.0432491 0.00178536 0
0.0450345 0.00178536 0
0.0450257 0 0
0.0387436 0.00310424 0
0.0422997 0.0035379 0
0.0411126 -0.000451824 0
0.0405216 0.00332107 0
0.0417061 0.00154304 0
0.0399281 0.00132621 0
0.0387703 0.00310424 0
0.0349917 0.00708633 0
0.0427524 0.0035379 0
0.036881 0.00509528 0
0.0388721 0.00531211 0
0.0407614 0.00332107 0
0.0387436 0.00311762 0
0.0411126 -0.000150698 0
0.0354753 0.00290507 0
0.0399281 0.00148346 0
0.0382939 0.00137719 0
0.0371094 0.00301134 0
0.0387703 0.00311762 0
0.0352901 0.00290507 0
0.0349917 0.00659789 0
0.0370302 0.00301134 0
0.0351409 0.00475148 0
0.036881 0.00485775 0
0.0315077 0.00622135 0
0.0285006 0.00598001 0
0.0269023 0.00922847 0
0.0300041 0.00610068 0
0.0277014 0.00760424 0
0.029205 0.00772491 0
0.0315077 0.00622411 0
0.0269023 0.00939885 0
0.0346824 0.00667829 0
0.029205 0.00781148 0
0.0307924 0.00803857 0
0.033095 0.0064512 0
0.0315132 0.00622135 0
0.0353692 0.00303491 0
0.0283267 0.00598001 0
0.0334412 0.00462813 0
0.0318479 0.00450746 0
0.02992 0.00610068 0
0.0315132 0.00622411 0
0.0349113 0.00667829 0
0.0353692 0.00282599 0
0.0332122 0.0064512 0
0.0351402 0.00475214 0
0.0334412 0.00452505 0
0.0215653 0.0115636 0
0.023751 0.011872 0
0.0269232 0.00937799 0
0.0226582 0.0117178 0
0.0253371 0.010625 0
0.0242442 0.0104708 0
0.0215653 0.0115601 0
0.0269232 0.00936665 0
0.0193718 0.011284 0
0.0242442 0.0104634 0
0.0231475 0.0103253 0
0.0204686 0.0114221 0
0.0215583 0.0115636 0
0.0161717 0.0133286 0
0.0233233 0.011872 0
0.018865 0.0124461 0
0.0197475 0.0126003 0
0.0224408 0.0117178 0
0.0215583 0.0115601 0
0.0197294 0.011284 0
0.0161717 0.0133891 0
0.0206439 0.0114221 0
0.0179506 0.0123365 0
0.018865 0.0124746 0
0.0241437 0.00889257 0
0.0269886 0.0091422 0
0.0284329 0.00604764 0
0.0255662 0.00901738 0
0.0277108 0.00759492 0
0.0262883 0.0074701 0
0.0241381 0.00889257 0
0.019541 0.0114532 0
0.0266987 0.0091422 0
0.0218395 0.0101729 0
0.0231199 0.0102977 0
0.0254184 0.00901738 0
0.0241437 0.00888977 0
0.0284329 0.00613579 0
0.0213897 0.0087135 0
0.0262883 0.00751278 0
0.0249113 0.00742465 0
0.0227667 0.00880163 0
0.0241381 0.00888977 0
0.0216237 0.0087135 0
0.019541 0.0114042 0
0.0228809 0.00880163 0
0.0205823 0.0100588 0
0.0218395 0.010147 0
0.0384778 0 0
0.0353557 0.00278546 0
0.0412633 0 0
0.0369167 0.00139273 0
0.0383095 0.00139273 0
0.0398705 0 0
0.0384778 0 0
0.035707 0 0
0.0353557 0.00277076 0
0.0370924 0 0
0.0355314 0.00138538 0
0.0369167 0.00138538 0
0.0321781 0.00295945 0
0.028414 0.00606729 0
0.0352859 0.00295166 0
0.030296 0.00451337 0
0.03185 0.00450947 0
0.033732 0.00295555 0
0.0321679 0.00295945 0
0.0351748 0.00295166 0
0.0357545 -4.74353e-05 0
0.0336713 0.00295555 0
0.0354646 0.00145211 0
0.0339612 0.00145601 0
0.0321781 0.00296454 0
0.029161 0.00300484 0
0.028414 0.00598158 0
0.0306695 0.00298469 0
0.0287875 0.00449321 0
0.030296 0.00447306 0
0.0321679 0.00296454 0
0.0357545 -3.30261e-05 0
0.0291703 0.00300484 0
0.0339612 0.00146576 0
0.0324624 0.00148591 0
0.0306691 0.00298469 0
0.00502989 0.0025517 0
0.00513545 0.00723137 0
-2.05011e-05 0.00244614 0
0.00508267 0.00489154 0
0.00255747 0.00483876 0
0.00250469 0.00249892 0
0.00494335 0.0025517 0
0.0100386 0.00302662 0
0.00541827 0.00723137 0
0.00749099 0.00278916 0
0.00772845 0.00512899 0
0.00518081 0.00489154 0
6.83415e-07 0.00694498 0
-0.000145286 0.00257093 0
0.00527587 0.00709095 0
-7.23012e-05 0.00475795 0
0.00256529 0.00483094 0
0.00263828 0.00701796 0
6.83415e-07 0.00694429 0
0.00527587 0.00709573 0
0.00015212 0.0105371 0
0.00263828 0.00702001 0
0.002714 0.00881644 0
7.64017e-05 0.00874072 0
-6.83424e-07 0.00694498 0
-0.00527587 0.00709095 0
0.000145286 0.00257093 0
-0.00263828 0.00701796 0
-0.00256529 0.00483094 0
7.23012e-05 0.00475795 0
-6.83424e-07 0.00694429 0
-0.00015212 0.0105371 0
-0.00527587 0.00709573 0
-7.64018e-05 0.00874072 0
-0.002714 0.00881644 0
-0.00263828 0.00702001 0
0.00554652 0.0104922 0
0.00513367 0.00727317 0
0.0113462 0.0109051 0
0.00534009 0.0088827 0
0.00823993 0.00908913 0
0.00844635 0.0106987 0
0.00555584 0.0104922 0
4.68135e-06 0.0103897 0
0.00545331 0.00727317 0
0.00278026 0.010441 0
0.002729 0.00883144 0
0.00550458 0.0088827 0
0.00554652 0.0104969 0
0.0113462 0.0107951 0
0.00584474 0.0129066 0
0.00844635 0.010646 0
0.00859547 0.0118509 0
0.00569563 0.0117017 0
0.00555584 0.0104969 0
0.00561833 0.0129066 0
4.68135e-06 0.0104344 0
0.00558708 0.0117017 0
0.00281151 0.0116705 0
0.00278026 0.0104657 0
-4.85841e-06 0.0127618 0
0.00568152 0.0128094 0
4.27209e-05 0.0143278 0
0.00283833 0.0127856 0
0.00286212 0.0135686 0
1.89312e-05 0.0135448 0
-4.85841e-06 0.012757 0
-9.13049e-05 0.0105304 0
0.00568152 0.0128434 0
-4.80817e-05 0.0116437 0
0.00279511 0.0116869 0
0.00283833 0.0128002 0
4.8584e-06 0.0127618 0
-4.27209e-05 0.0143278 0
-0.00568152 0.0128094 0
-1.89313e-05 0.0135448 0
-0.00286212 0.0135686 0
-0.00283833 0.0127856 0
4.8584e-06 0.012757 0
-0.00568152 0.0128434 0
9.13049e-05 0.0105304 0
-0.00283833 0.0128002 0
-0.00279511 0.0116869 0
4.80817e-05 0.0116437 0
0.00557824 0.0141302 0
1.40226e-05 0.0142991 0
0.00574715 0.012875 0
0.00279613 0.0142147 0
0.00288059 0.0135871 0
0.00566269 0.0135026 0
0.00556985 0.0141302 0
0.00574271 0.012875 0
0.011325 0.0139574 0
0.00565628 0.0135026 0
0.00853384 0.0134162 0
0.00844742 0.0140438 0
0.00557824 0.0141344 0
0.00537261 0.0149204 0
1.40226e-05 0.0143401 0
0.00547542 0.0145274 0
0.00269332 0.0146302 0
0.00279613 0.0142372 0
0.00556985 0.0141344 0
0.011325 0.0138578 0
0.00529319 0.0149204 0
0.00844742 0.0139961 0
0.00830909 0.0143891 0
0.00543152 0.0145274 0
-0.00554652 0.0104922 0
-0.0113462 0.0109051 0
-0.00513367 0.00727317 0
-0.00844635 0.0106987 0
-0.00823993 0.00908913 0
-0.00534009 0.0088827 0
-0.00555584 0.0104922 0
-0.00545331 0.00727317 0
-4.68136e-06 0.0103897 0
-0.00550458 0.0088827 0
-0.002729 0.00883144 0
-0.00278026 0.010441 0
-0.00554652 0.0104969 0
-0.00584474 0.0129066 0
-0.0113462 0.0107951 0
-0.00569563 0.0117017 0
-0.00859547 0.0118509 0
-0.00844635 0.010646 0
-0.00555584 0.0104969 0
-4.68136e-06 0.0104344 0
-0.00561833 0.0129066 0
-0.00278026 0.0104657 0
-0.00281151 0.0116705 0
-0.00558708 0.0117017 0
-0.00502989 0.0025517 0
2.05011e-05 0.00244614 0
-0.00513545 0.00723137 0
-0.00250469 0.00249892 0
-0.00255747 0.00483876 0
-0.00508267 0.00489154 0
-0.00494335 0.0025517 0
-0.00541827 0.00723137 0
-0.0100386 0.00302662 0
-0.00518081 0.00489154 0
-0.00772845 0.00512899 0
-0.00749099 0.00278916 0
-0.0107679 0.00762076 0
-0.00525358 0.00715326 0
-0.0112354 0.0110159 0
-0.00801074 0.00738701 0
-0.00824449 0.00908457 0
-0.0110016 0.00931832 0
-0.0107679 0.00762029 0
-0.0102143 0.00320228 0
-0.00525358 0.00706668 0
-0.0104911 0.00541129 0
-0.00773394 0.00513448 0
-0.00801074 0.00734349 0
-0.010767 0.00762076 0
-0.0116108 0.0110159 0
-0.0166598 0.00846458 0
-0.0111889 0.00931832 0
-0.0141353 0.00974023 0
-0.0137134 0.00804267 0
-0.010767 0.00762029 0
-0.0166598 0.0085577 0
-0.00982955 0.00320228 0
-0.0137134 0.00808899 0
-0.0132447 0.00587999 0
-0.0102983 0.00541129 0
-0.00557824 0.0141302 0
-0.00574715 0.012875 0
-1.40226e-05 0.0142991 0
-0.00566269 0.0135026 0
-0.00288059 0.0135871 0
-0.00279613 0.0142147 0
-0.00556985 0.0141302 0
-0.011325 0.0139574 0
-0.00574271 0.012875 0
-0.00844742 0.0140438 0
-0.00853384 0.0134162 0
-0.00565628 0.0135026 0
-0.00557824 0.0141344 0
-1.40226e-05 0.0143401 0
-0.00537261 0.0149204 0
-0.00279613 0.0142372 0
-0.00269332 0.0146302 0
-0.00547542 0.0145274 0
-0.00556985 0.0141344 0
-0.00529319 0.0149204 0
-0.011325 0.0138578 0
-0.00543152 0.0145274 0
-0.00830909 0.0143891 0
-0.00844742 0.0139961 0
-0.0115291 0.012767 0
-0.0115343 0.0109833 0
-0.00571039 0.0127722 0
-0.0115317 0.0118751 0
-0.00862236 0.0118778 0
-0.00861973 0.0127696 0
-0.0115291 0.0127733 0
-0.00571039 0.0129073 0
-0.011395 0.0138874 0
-0.00861973 0.0128403 0
-0.00855269 0.0133974 0
-0.011462 0.0133303 0
-0.0115165 0.012767 0
-0.0178438 0.0128829 0
-0.0114006 0.0109833 0
-0.0146802 0.0128249 0
-0.0146222 0.0119331 0
-0.0114586 0.0118751 0
-0.0115165 0.0127733 0
-0.0114033 0.0138874 0
-0.0178438 0.01266 0
-0.0114599 0.0133303 0
-0.0146236 0.0132737 0
-0.0146802 0.0127166 0
0.0106407 0.0142829 0
0.016154 0.0133147 0
0.00967251 0.0144832 0
0.0133974 0.0137988 0
0.0129132 0.0138989 0
0.0101566 0.014383 0
0.0106407 0.0142811 0
0.011514 0.0138468 0
0.016154 0.0134079 0
0.0110774 0.0140639 0
0.013834 0.0136273 0
0.0133974 0.0138445 0
0.0106442 0.0142829 0
0.00990754 0.0144832 0
0.00532368 0.0150196 0
0.0102759 0.014383 0
0.00761561 0.0147514 0
0.00798395 0.0146512 0
0.0106442 0.0142811 0
0.00532368 0.0149509 0
0.011314 0.0138468 0
0.00798395 0.014616 0
0.00831882 0.0143988 0
0.0109791 0.0140639 0
0.0146405 0.013184 0
0.00977496 0.0145857 0
0.0160421 0.0132028 0
0.0122077 0.0138848 0
0.0129086 0.0138942 0
0.0153413 0.0131934 0
0.0146422 0.013184 0
0.016358 0.0132028 0
0.0195452 0.0114683 0
0.0155001 0.0131934 0
0.0179516 0.0123355 0
0.0170937 0.0123262 0
0.0146405 0.0131832 0
0.0131985 0.0131134 0
0.00977496 0.0146252 0
0.0139195 0.0131483 0
0.0114867 0.0138693 0
0.0122077 0.0139042 0
0.0146422 0.0131832 0
0.0195452 0.0114406 0
0.0128996 0.0131134 0
0.0170937 0.0123119 0
0.0162224 0.012277 0
0.0137709 0.0131483 0
-3.01569e-06 0.0150533 0
5.7107e-05 0.014297 0
0.00529982 0.0149932 0
2.70457e-05 0.0146751 0
0.00267846 0.0146451 0
0.0026484 0.0150232 0
-3.01569e-06 0.0150563 0
0.00529982 0.0149721 0
-8.72638e-05 0.0154973 0
0.0026484 0.0150142 0
0.00260628 0.0152347 0
-4.51398e-05 0.0152768 0
3.01568e-06 0.0150533 0
-0.00529982 0.0149932 0
-5.7107e-05 0.014297 0
-0.0026484 0.0150232 0
-0.00267846 0.0146451 0
-2.70457e-05 0.0146751 0
3.01568e-06 0.0150563 0
8.72638e-05 0.0154973 0
-0.00529982 0.0149721 0
4.51397e-05 0.0152768 0
-0.00260628 0.0152347 0
-0.0026484 0.0150142 0
0.00485184 0.0152274 0
0.00545035 0.0148929 0
0.00976185 0.0146289 0
0.00515109 0.0150601 0
0.0076061 0.0147609 0
0.00730685 0.0149281 0
0.00485494 0.0152274 0
8.50721e-06 0.0155931 0
0.00522065 0.0148929 0
0.00243173 0.0154102 0
0.00261458 0.015243 0
0.0050378 0.0150601 0
0.00485184 0.0152289 0
0.00976185 0.0145908 0
0.00421367 0.0153937 0
0.00730685 0.0149099 0
0.00698776 0.0149922 0
0.00453276 0.0153113 0
0.00485494 0.0152289 0
0.00447439 0.0153937 0
8.50721e-06 0.0156095 0
0.00466467 0.0153113 0
0.00224145 0.0155016 0
0.00243173 0.0154192 0
-1.05252e-06 0.01568 0
0.00433025 0.0155304 0
-0.000150629 0.0157799 0
0.0021646 0.0156052 0
0.00208981 0.0156552 0
-7.58408e-05 0.01573 0
-1.05252e-06 0.015679 0
0.000140104 0.0154779 0
0.00433025 0.0155378 0
6.95257e-05 0.0155784 0
0.00223517 0.0155078 0
0.0021646 0.0156084 0
1.05252e-06 0.01568 0
0.000150629 0.0157799 0
-0.00433025 0.0155304 0
7.58408e-05 0.01573 0
-0.00208981 0.0156552 0
-0.0021646 0.0156052 0
1.05252e-06 0.015679 0
-0.00433025 0.0155378 0
-0.000140104 0.0154779 0
-0.0021646 0.0156084 0
-0.00223517 0.0155078 0
-6.95257e-05 0.0155784 0
0.003741 0.0154915 0
2.29773e-06 0.0159329 0
0.00418234 0.0153825 0
0.00187165 0.0157122 0
0.00209232 0.0156577 0
0.00396167 0.015437 0
0.00374002 0.0154915 0
0.0044978 0.0153825 0
0.00750677 0.0147337 0
0.00411891 0.015437 0
0.00600228 0.0150581 0
0.0056234 0.0151126 0
0.003741 0.015492 0
0.00329321 0.0155516 0
2.29773e-06 0.0159398 0
0.0035171 0.0155218 0
0.00164775 0.0157457 0
0.00187165 0.0157159 0
0.00374002 0.015492 0
0.00750677 0.01472 0
0.002968 0.0155516 0
0.0056234 0.015106 0
0.00523738 0.0151358 0
0.00335401 0.0155218 0
0.00866508 0.0145476 0
0.00433973 0.0155197 0
0.00963716 0.0144661 0
0.0065024 0.0150337 0
0.00698845 0.0149929 0
0.00915112 0.0145069 0
0.00866508 0.0145479 0
0.00767234 0.0145682 0
0.00433973 0.0155406 0
0.00816871 0.014558 0
0.00600604 0.0150544 0
0.0065024 0.0150442 0
0.00866462 0.0145476 0
0.00993409 0.0144661 0
0.0130338 0.0132782 0
0.00929936 0.0145069 0
0.0114839 0.0138721 0
0.0108492 0.0139129 0
0.00866462 0.0145479 0
0.0130338 0.0132541 0
0.00737086 0.0145682 0
0.0108492 0.013901 0
0.0102023 0.0139111 0
0.00801774 0.014558 0
-0.00485184 0.0152289 0
-0.00421367 0.0153937 0
-0.00976185 0.0145908 0
-0.00453276 0.0153113 0
-0.00698776 0.0149922 0
-0.00730685 0.0149099 0
-0.00485494 0.0152289 0
-8.50722e-06 0.0156095 0
-0.00447439 0.0153937 0
-0.00243173 0.0154192 0
-0.00224145 0.0155016 0
-0.00466467 0.0153113 0
-0.00485184 0.0152274 0
-0.00976185 0.0146289 0
-0.00545035 0.0148929 0
-0.00730685 0.0149281 0
-0.0076061 0.0147609 0
-0.00515109 0.0150601 0
-0.00485494 0.0152274 0
-0.00522065 0.0148929 0
-8.50722e-06 0.0155931 0
-0.0050378 0.0150601 0
-0.00261458 0.015243 0
-0.00243173 0.0154102 0
-0.003741 0.0154915 0
-0.00418234 0.0153825 0
-2.29774e-06 0.0159329 0
-0.00396167 0.015437 0
-0.00209232 0.0156577 0
-0.00187165 0.0157122 0
-0.00374002 0.0154915 0
-0.00750677 0.0147337 0
-0.0044978 0.0153825 0
-0.0056234 0.0151126 0
-0.00600228 0.0150581 0
-0.00411891 0.015437 0
-0.003741 0.015492 0
-2.29774e-06 0.0159398 0
-0.00329321 0.0155516 0
-0.00187165 0.0157159 0
-0.00164775 0.0157457 0
-0.0035171 0.0155218 0