# vtk DataFile Version 1.0
2D Unstructured Grid of Linear Triangles
ASCII

DATASET UNSTRUCTURED_GRID
POINTS 6144 float
0.03125 0.03125 0
0 0.0625 0
0 0 0
0.015625 0.046875 0
0 0.03125 0
0.015625 0.015625 0
0.03125 0.03125 0
0.0625 0.0625 0
0 0.0625 0
0.046875 0.046875 0
0.03125 0.0625 0
0.015625 0.046875 0
0.03125 0.03125 0
0 0 0
0.0625 0 0
0.015625 0.015625 0
0.03125 0 0
0.046875 0.015625 0
0.03125 0.03125 0
0.0625 0 0
0.0625 0.0625 0
0.046875 0.015625 0
0.0625 0.03125 0
0.046875 0.046875 0
0.03125 0.09375 0
0 0.125 0
0 0.0625 0
0.015625 0.109375 0
0 0.09375 0
0.015625 0.078125 0
0.03125 0.09375 0
0 0.0625 0
0.0625 0.0625 0
0.015625 0.078125 0
0.03125 0.0625 0
0.046875 0.078125 0
0.03125 0.09375 0
0.0625 0.125 0
0 0.125 0
0.046875 0.109375 0
0.03125 0.125 0
0.015625 0.109375 0
0.03125 0.09375 0
0.0625 0.0625 0
0.0625 0.125 0
0.046875 0.078125 0
0.0625 0.09375 0
0.046875 0.109375 0
0.09375 0.09375 0
0.125 0.125 0
0.0625 0.125 0
0.109375 0.109375 0
0.09375 0.125 0
0.078125 0.109375 0
0.09375 0.09375 0
0.0625 0.125 0
0.0625 0.0625 0
0.078125 0.109375 0
0.0625 0.09375 0
0.078125 0.078125 0
0.09375 0.09375 0
0.125 0.0625 0
0.125 0.125 0
0.109375 0.078125 0
0.125 0.09375 0
0.109375 0.109375 0
0.09375 0.09375 0
0.0625 0.0625 0
0.125 0.0625 0
0.078125 0.078125 0
0.09375 0.0625 0
0.109375 0.078125 0
0.09375 0.15625 0
0.0625 0.125 0
0.125 0.125 0
0.078125 0.140625 0
0.09375 0.125 0
0.109375 0.140625 0
0.09375 0.15625 0
0.0625 0.1875 0
0.0625 0.125 0
0.078125 0.171875 0
0.0625 0.15625 0
0.078125 0.140625 0
0.09375 0.15625 0
0.125 0.125 0
0.125 0.1875 0
0.109375 0.140625 0
0.125 0.15625 0
0.109375 0.171875 0
0.09375 0.15625 0
0.125 0.1875 0
0.0625 0.1875 0
0.109375 0.171875 0
0.09375 0.1875 0
0.078125 0.171875 0
0.03125 0.15625 0
0 0.125 0
0.0625 0.125 0
0.015625 0.140625 0
0.03125 0.125 0
0.046875 0.140625 0
0.03125 0.15625 0
0.0625 0.125 0
0.0625 0.1875 0
0.046875 0.140625 0
0.0625 0.15625 0
0.046875 0.171875 0
0.03125 0.15625 0
0 0.1875 0
0 0.125 0
0.015625 0.171875 0
0 0.15625 0
0.015625 0.140625 0
0.03125 0.15625 0
0.0625 0.1875 0
0 0.1875 0
0.046875 0.171875 0
0.03125 0.1875 0
0.015625 0.171875 0
0.09375 0.03125 0
0.0625 0 0
0.125 0 0
0.078125 0.015625 0
0.09375 0 0
0.109375 0.015625 0
0.09375 0.03125 0
0.0625 0.0625 0
0.0625 0 0
0.078125 0.046875 0
0.0625 0.03125 0
0.078125 0.015625 0
0.09375 0.03125 0
0.125 0 0
0.125 0.0625 0
0.109375 0.015625 0
0.125 0.03125 0
0.109375 0.046875 0
0.09375 0.03125 0
0.125 0.0625 0
0.0625 0.0625 0
0.109375 0.046875 0
0.09375 0.0625 0
0.078125 0.046875 0
0.15625 0.09375 0
0.125 0.125 0
0.125 0.0625 0
0.140625 0.109375 0
0.125 0.09375 0
0.140625 0.078125 0
0.15625 0.09375 0
0.125 0.0625 0
0.1875 0.0625 0
0.140625 0.078125 0
0.15625 0.0625 0
0.171875 0.078125 0
0.15625 0.09375 0
0.1875 0.125 0
0.125 0.125 0
0.171875 0.109375 0
0.15625 0.125 0
0.140625 0.109375 0
0.15625 0.09375 0
0.1875 0.0625 0
0.1875 0.125 0
0.171875 0.078125 0
0.1875 0.09375 0
0.171875 0.109375 0
0.15625 0.03125 0
0.125 0.0625 0
0.125 0 0
0.140625 0.046875 0
0.125 0.03125 0
0.140625 0.015625 0
0.15625 0.03125 0
0.1875 0.0625 0
0.125 0.0625 0
0.171875 0.046875 0
0.15625 0.0625 0
0.140625 0.046875 0
0.15625 0.03125 0
0.125 0 0
0.1875 0 0
0.140625 0.015625 0
0.15625 0 0
0.171875 0.015625 0
0.15625 0.03125 0
0.1875 0 0
0.1875 0.0625 0
0.171875 0.015625 0
0.1875 0.03125 0
0.171875 0.046875 0
0.03125 0.21875 0
0 0.25 0
0 0.1875 0
0.015625 0.234375 0
0 0.21875 0
0.015625 0.203125 0
0.03125 0.21875 0
0 0.1875 0
0.0625 0.1875 0
0.015625 0.203125 0
0.03125 0.1875 0
0.046875 0.203125 0
0.03125 0.21875 0
0.0625 0.25 0
0 0.25 0
0.046875 0.234375 0
0.03125 0.25 0
0.015625 0.234375 0
0.03125 0.21875 0
0.0625 0.1875 0
0.0625 0.25 0
0.046875 0.203125 0
0.0625 0.21875 0
0.046875 0.234375 0
0.09375 0.21875 0
0.125 0.25 0
0.0625 0.25 0
0.109375 0.234375 0
0.09375 0.25 0
0.078125 0.234375 0
0.09375 0.21875 0
0.0625 0.25 0
0.0625 0.1875 0
0.078125 0.234375 0
0.0625 0.21875 0
0.078125 0.203125 0
0.09375 0.21875 0
0.125 0.1875 0
0.125 0.25 0
0.109375 0.203125 0
0.125 0.21875 0
0.109375 0.234375 0
0.09375 0.21875 0
0.0625 0.1875 0
0.125 0.1875 0
0.078125 0.203125 0
0.09375 0.1875 0
0.109375 0.203125 0
0.03125 0.28125 0
0 0.25 0
0.0625 0.25 0
0.015625 0.265625 0
0.03125 0.25 0
0.046875 0.265625 0
0.03125 0.28125 0
0.0625 0.25 0
0.0625 0.3125 0
0.046875 0.265625 0
0.0625 0.28125 0
0.046875 0.296875 0
0.03125 0.28125 0
0 0.3125 0
0 0.25 0
0.015625 0.296875 0
0 0.28125 0
0.015625 0.265625 0
0.03125 0.28125 0
0.0625 0.3125 0
0 0.3125 0
0.046875 0.296875 0
0.03125 0.3125 0
0.015625 0.296875 0
0.09375 0.28125 0
0.0625 0.25 0
0.125 0.25 0
0.078125 0.265625 0
0.09375 0.25 0
0.109375 0.265625 0
0.09375 0.28125 0
0.0625 0.3125 0
0.0625 0.25 0
0.078125 0.296875 0
0.0625 0.28125 0
0.078125 0.265625 0
0.09375 0.28125 0
0.125 0.25 0
0.125 0.3125 0
0.109375 0.265625 0
0.125 0.28125 0
0.109375 0.296875 0
0.09375 0.28125 0
0.125 0.3125 0
0.0625 0.3125 0
0.109375 0.296875 0
0.09375 0.3125 0
0.078125 0.296875 0
0.15625 0.15625 0
0.125 0.1875 0
0.125 0.125 0
0.140625 0.171875 0
0.125 0.15625 0
0.140625 0.140625 0
0.15625 0.15625 0
0.1875 0.1875 0
0.125 0.1875 0
0.171875 0.171875 0
0.15625 0.1875 0
0.140625 0.171875 0
0.15625 0.15625 0
0.125 0.125 0
0.1875 0.125 0
0.140625 0.140625 0
0.15625 0.125 0
0.171875 0.140625 0
0.15625 0.15625 0
0.1875 0.125 0
0.1875 0.1875 0
0.171875 0.140625 0
0.1875 0.15625 0
0.171875 0.171875 0
0.15625 0.21875 0
0.125 0.25 0
0.125 0.1875 0
0.140625 0.234375 0
0.125 0.21875 0
0.140625 0.203125 0
0.15625 0.21875 0
0.125 0.1875 0
0.1875 0.1875 0
0.140625 0.203125 0
0.15625 0.1875 0
0.171875 0.203125 0
0.15625 0.21875 0
0.1875 0.25 0
0.125 0.25 0
0.171875 0.234375 0
0.15625 0.25 0
0.140625 0.234375 0
0.15625 0.21875 0
0.1875 0.1875 0
0.1875 0.25 0
0.171875 0.203125 0
0.1875 0.21875 0
0.171875 0.234375 0
0.21875 0.21875 0
0.25 0.25 0
0.1875 0.25 0
0.234375 0.234375 0
0.21875 0.25 0
0.203125 0.234375 0
0.21875 0.21875 0
0.1875 0.25 0
0.1875 0.1875 0
0.203125 0.234375 0
0.1875 0.21875 0
0.203125 0.203125 0
0.21875 0.21875 0
0.25 0.1875 0
0.25 0.25 0
0.234375 0.203125 0
0.25 0.21875 0
0.234375 0.234375 0
0.21875 0.21875 0
0.1875 0.1875 0
0.25 0.1875 0
0.203125 0.203125 0
0.21875 0.1875 0
0.234375 0.203125 0
0.21875 0.28125 0
0.1875 0.25 0
0.25 0.25 0
0.203125 0.265625 0
0.21875 0.25 0
0.234375 0.265625 0
0.21875 0.28125 0
0.1875 0.3125 0
0.1875 0.25 0
0.203125 0.296875 0
0.1875 0.28125 0
0.203125 0.265625 0
0.21875 0.28125 0
0.25 0.25 0
0.25 0.3125 0
0.234375 0.265625 0
0.25 0.28125 0
0.234375 0.296875 0
0.21875 0.28125 0
0.25 0.3125 0
0.1875 0.3125 0
0.234375 0.296875 0
0.21875 0.3125 0
0.203125 0.296875 0
0.15625 0.28125 0
0.125 0.25 0
0.1875 0.25 0
0.140625 0.265625 0
0.15625 0.25 0
0.171875 0.265625 0
0.15625 0.28125 0
0.1875 0.25 0
0.1875 0.3125 0
0.171875 0.265625 0
0.1875 0.28125 0
0.171875 0.296875 0
0.15625 0.28125 0
0.125 0.3125 0
0.125 0.25 0
0.140625 0.296875 0
0.125 0.28125 0
0.140625 0.265625 0
0.15625 0.28125 0
0.1875 0.3125 0
0.125 0.3125 0
0.171875 0.296875 0
0.15625 0.3125 0
0.140625 0.296875 0
0.21875 0.15625 0
0.25 0.125 0
0.25 0.1875 0
0.234375 0.140625 0
0.25 0.15625 0
0.234375 0.171875 0
0.21875 0.15625 0
0.25 0.1875 0
0.1875 0.1875 0
0.234375 0.171875 0
0.21875 0.1875 0
0.203125 0.171875 0
0.21875 0.15625 0
0.1875 0.125 0
0.25 0.125 0
0.203125 0.140625 0
0.21875 0.125 0
0.234375 0.140625 0
0.21875 0.15625 0
0.1875 0.1875 0
0.1875 0.125 0
0.203125 0.171875 0
0.1875 0.15625 0
0.203125 0.140625 0
0.28125 0.21875 0
0.25 0.25 0
0.25 0.1875 0
0.265625 0.234375 0
0.25 0.21875 0
0.265625 0.203125 0
0.28125 0.21875 0
0.25 0.1875 0
0.3125 0.1875 0
0.265625 0.203125 0
0.28125 0.1875 0
0.296875 0.203125 0
0.28125 0.21875 0
0.3125 0.25 0
0.25 0.25 0
0.296875 0.234375 0
0.28125 0.25 0
0.265625 0.234375 0
0.28125 0.21875 0
0.3125 0.1875 0
0.3125 0.25 0
0.296875 0.203125 0
0.3125 0.21875 0
0.296875 0.234375 0
0.28125 0.15625 0
0.25 0.1875 0
0.25 0.125 0
0.265625 0.171875 0
0.25 0.15625 0
0.265625 0.140625 0
0.28125 0.15625 0
0.3125 0.1875 0
0.25 0.1875 0
0.296875 0.171875 0
0.28125 0.1875 0
0.265625 0.171875 0
0.28125 0.15625 0
0.25 0.125 0
0.3125 0.125 0
0.265625 0.140625 0
0.28125 0.125 0
0.296875 0.140625 0
0.28125 0.15625 0
0.3125 0.125 0
0.3125 0.1875 0
0.296875 0.140625 0
0.3125 0.15625 0
0.296875 0.171875 0
0.21875 0.09375 0
0.25 0.125 0
0.1875 0.125 0
0.234375 0.109375 0
0.21875 0.125 0
0.203125 0.109375 0
0.21875 0.09375 0
0.1875 0.125 0
0.1875 0.0625 0
0.203125 0.109375 0
0.1875 0.09375 0
0.203125 0.078125 0
0.21875 0.09375 0
0.25 0.0625 0
0.25 0.125 0
0.234375 0.078125 0
0.25 0.09375 0
0.234375 0.109375 0
0.21875 0.09375 0
0.1875 0.0625 0
0.25 0.0625 0
0.203125 0.078125 0
0.21875 0.0625 0
0.234375 0.078125 0
0.15625 0.34375 0
0.125 0.375 0
0.125 0.3125 0
0.140625 0.359375 0
0.125 0.34375 0
0.140625 0.328125 0
0.15625 0.34375 0
0.125 0.3125 0
0.1875 0.3125 0
0.140625 0.328125 0
0.15625 0.3125 0
0.171875 0.328125 0
0.15625 0.34375 0
0.1875 0.375 0
0.125 0.375 0
0.171875 0.359375 0
0.15625 0.375 0
0.140625 0.359375 0
0.15625 0.34375 0
0.1875 0.3125 0
0.1875 0.375 0
0.171875 0.328125 0
0.1875 0.34375 0
0.171875 0.359375 0
0.09375 0.34375 0
0.125 0.3125 0
0.125 0.375 0
0.109375 0.328125 0
0.125 0.34375 0
0.109375 0.359375 0
0.09375 0.34375 0
0.0625 0.3125 0
0.125 0.3125 0
0.078125 0.328125 0
0.09375 0.3125 0
0.109375 0.328125 0
0.09375 0.34375 0
0.125 0.375 0
0.0625 0.375 0
0.109375 0.359375 0
0.09375 0.375 0
0.078125 0.359375 0
0.09375 0.34375 0
0.0625 0.375 0
0.0625 0.3125 0
0.078125 0.359375 0
0.0625 0.34375 0
0.078125 0.328125 0
0.21875 0.34375 0
0.25 0.3125 0
0.25 0.375 0
0.234375 0.328125 0
0.25 0.34375 0
0.234375 0.359375 0
0.21875 0.34375 0
0.1875 0.3125 0
0.25 0.3125 0
0.203125 0.328125 0
0.21875 0.3125 0
0.234375 0.328125 0
0.21875 0.34375 0
0.25 0.375 0
0.1875 0.375 0
0.234375 0.359375 0
0.21875 0.375 0
0.203125 0.359375 0
0.21875 0.34375 0
0.1875 0.375 0
0.1875 0.3125 0
0.203125 0.359375 0
0.1875 0.34375 0
0.203125 0.328125 0
0.28125 0.28125 0
0.25 0.3125 0
0.25 0.25 0
0.265625 0.296875 0
0.25 0.28125 0
[...]
POINT_DATA 6144
VECTORS stress_1 float
0.0813051 0.023691 0
0.0186355 0.041806 0
0.135673 0.050108 0
0.0499703 0.0327485 0
0.0771541 0.045957 0
0.108489 0.0368995 0
0.078954 0.0260421 0
0.0567025 0.0180586 0
0.0415592 0.0188823 0
0.0678282 0.0220504 0
0.0491309 0.0184704 0
0.0602566 0.0224622 0
0.0766374 0.0190233 0
0.0855647 0 0
0.0475182 0 0
0.0811011 0.00951164 0
0.0665415 0 0
0.0620778 0.00951164 0
0.0742863 0.0213744 0
0.0569566 -0.00943839 0
0.0604108 0.0217669 0
0.0656214 0.00596802 0
0.0586837 0.00616424 0
0.0673485 0.0215707 0
0.047247 0.0185136 0
0.0376714 0.0110973 0
0.0514784 0.0164416 0
0.0424592 0.0148054 0
0.0445749 0.0137695 0
0.0493627 0.0174776 0
0.0471706 0.0184372 0
0.053919 0.0188823 0
0.0539856 0.0180586 0
0.0505448 0.0186597 0
0.0539523 0.0184704 0
0.0505781 0.0182479 0
0.04708 0.0186806 0
0.0435318 0.0161314 0
0.0355354 0.0132334 0
0.0453059 0.017406 0
0.0395336 0.0146824 0
0.0413077 0.015957 0
0.0470036 0.0186042 0
0.054337 0.0177072 0
0.0423889 0.0149885 0
0.0506703 0.0181557 0
0.0483629 0.0163478 0
0.0446962 0.0167963 0
0.0485603 0.0122518 0
0.041447 0.0113591 0
0.043179 0.0148765 0
0.0450037 0.0118055 0
0.042313 0.0131178 0
0.0458697 0.0135641 0
0.0486637 0.0121485 0
0.0423889 0.0156666 0
0.054337 0.016268 0
0.0455263 0.0139075 0
0.0483629 0.0159673 0
0.0515003 0.0142082 0
0.0484754 0.0121669 0
0.0491902 0.00643028 0
0.0421394 0.0120515 0
0.0488328 0.00929861 0
0.0456648 0.00924089 0
0.0453074 0.0121092 0
0.0485788 0.0120636 0
0.0537708 0.0157018 0
0.050483 0.00513756 0
0.0511748 0.0138827 0
0.0521269 0.0104197 0
0.0495309 0.00860057 0
0.0375133 0.0131974 0
0.0423029 0.0148765 0
0.0421437 0.0113591 0
0.0399081 0.0140369 0
0.0422233 0.0131178 0
0.0398285 0.0122783 0
0.0375323 0.0132165 0
0.0311083 0.0126153 0
0.0419991 0.0145727 0
0.0343203 0.0129159 0
0.0365537 0.013594 0
0.0397657 0.0138946 0
0.0374814 0.0132293 0
0.0416454 0.0118574 0
0.0327515 0.0124233 0
0.0395634 0.0125433 0
0.0371985 0.0121403 0
0.0351165 0.0128263 0
0.0375005 0.0132484 0
0.0328895 0.0125612 0
0.0313388 0.0123848 0
0.035195 0.0129048 0
0.0321141 0.012473 0
0.0344196 0.0128166 0
0.0345258 0.0126912 0
0.037591 0.0132334 0
0.0415734 0.0161314 0
0.0360584 0.0129623 0
0.0395822 0.0146824 0
0.0380496 0.0144113 0
0.0346145 0.0126025 0
0.0419991 0.0157057 0
0.0311083 0.0118274 0
0.0383068 0.0141541 0
0.0365537 0.0137666 0
0.0328614 0.0122149 0
0.0344127 0.0125781 0
0.0282604 0.00728448 0
0.0361036 0.0117459 0
0.0313365 0.00993128 0
0.032182 0.00951519 0
0.0352581 0.012162 0
0.0345014 0.0124894 0
0.0319786 0.0126977 0
0.0276212 0.00792365 0
0.03324 0.0125936 0
0.0297999 0.0103107 0
0.0310613 0.0102065 0
0.0524602 0.00468483 0
0.0545598 0 0
0.0451901 0 0
0.05351 0.00234242 0
0.0498749 0 0
0.0488252 0.00234242 0
0.0523179 0.0045425 0
0.0604108 0.0151283 0
0.0569566 0.00239681 0
0.0563643 0.00983542 0
0.0586837 0.00876258 0
0.0546372 0.00346965 0
0.0526554 0.00448967 0
0.0469991 -0.00180903 0
0.0495289 0.0069738 0
0.0498273 0.00134032 0
0.048264 0.00258238 0
0.0510921 0.00573173 0
0.0525131 0.00434733 0
0.0476926 0.00513756 0
0.0598373 0.0157018 0
0.0501028 0.00474245 0
0.053765 0.0104197 0
0.0561752 0.0100246 0
0.0434024 0.00746915 0
0.0421394 0.0116239 0
0.0491902 0.00709902 0
0.0427709 0.00954652 0
0.0456648 0.00936145 0
0.0462963 0.00728408 0
0.0433881 0.00745485 0
0.0482603 0.00616903 0
0.0431523 0.00363273 0
0.0458242 0.00681194 0
0.0457063 0.00490088 0
0.0432702 0.00554379 0
0.0434103 0.00746119 0
0.0381593 0.00802511 0
0.0425127 0.0112506 0
0.0407848 0.00774315 0
0.040336 0.00963786 0
0.0429615 0.00935591 0
0.043396 0.00744689 0
0.0431511 0.00363396 0
0.0387046 0.00857036 0
0.0432736 0.00554042 0
0.0409278 0.00610216 0
0.0410503 0.00800863 0
0.0455437 0.00198745 0
0.0495289 0.005403 0
0.0469991 -3.75075e-05 0
0.0475363 0.00369523 0
0.048264 0.00268275 0
0.0462714 0.000974969 0
0.0455679 0.00196329 0
0.0428876 0.00363273 0
0.0487628 0.00616903 0
0.0442278 0.00279801 0
0.0458252 0.00490088 0
0.0471654 0.00406616 0
0.0455802 0.00202393 0
0.0470366 0 0
0.0429888 0 0
0.0463084 0.00101196 0
0.0450127 0 0
0.0442845 0.00101196 0
0.0456044 0.00199977 0
0.0436059 -0.00061711 0
0.0431203 0.00386541 0
0.0446051 0.000691331 0
0.0433631 0.00162415 0
0.0443623 0.00293259 0
0.0259838 0.00910132 0
0.021427 0.00511917 0
0.0282081 0.00745165 0
0.0237054 0.00711024 0
0.0248176 0.00628541 0
0.027096 0.00827649 0
0.0260044 0.00912191 0
0.0286801 0.00792365 0
0.0310577 0.0126977 0
0.0273423 0.00852278 0
0.0298689 0.0103107 0
0.028531 0.0109098 0
0.026002 0.0090831 0
0.0236616 0.0102393 0
0.0211405 0.00540575 0
0.0248318 0.00966119 0
0.022401 0.00782252 0
0.0235712 0.00724442 0
0.0260226 0.00910369 0
0.0313428 0.0124126 0
0.0232687 0.00984636 0
0.0286827 0.0107582 0
0.0273057 0.0111295 0
0.0246457 0.00947503 0
0.0282533 0.011941 0
0.0248284 0.0121493 0
0.0232509 0.0101553 0
0.0265409 0.0120452 0
0.0240397 0.0111523 0
0.0257521 0.0110482 0
0.0282521 0.0119423 0
0.0232687 0.0101375 0
0.0313428 0.0120301 0
0.0257604 0.0110399 0
0.0273057 0.0110838 0
0.0297974 0.0119862 0
0.0282604 0.0119481 0
0.0326725 0.0126335 0
0.0245805 0.0119013 0
0.0304664 0.0122908 0
0.0286265 0.0122674 0
0.0264204 0.0119247 0
0.0282591 0.0119494 0
0.0316974 0.0123848 0
0.0327447 0.0125612 0
0.0299783 0.0121671 0
0.0322211 0.012473 0
0.0305019 0.0122553 0
0.0191573 0.00708477 0
0.0216839 0.00540575 0
0.0231594 0.0102393 0
0.0204206 0.00624526 0
0.0224217 0.00782252 0
0.0211583 0.00866203 0
0.0191656 0.00707646 0
0.0233391 0.0100595 0
0.016624 0.00842761 0
0.0212524 0.008568 0
0.0199816 0.00924358 0
0.0178948 0.00775203 0
0.0191487 0.00707614 0
0.0154722 0.00375247 0
0.0214279 0.00514973 0
0.0173104 0.00541431 0
0.01845 0.0044511 0
0.0202883 0.00611294 0
0.019157 0.00706783 0
0.0168577 0.00866129 0
0.015304 0.00392064 0
0.0180074 0.00786456 0
0.0160809 0.00629097 0
0.0172305 0.00549424 0
0.0206498 0.0106671 0
0.0236034 0.0101553 0
0.0245738 0.0121493 0
0.0221266 0.0104112 0
0.0240886 0.0111523 0
0.0226118 0.0114082 0
0.0206434 0.0106607 0
0.016624 0.00856732 0
0.0233391 0.009891 0
0.0186337 0.00961401 0
0.0199816 0.00922916 0
0.0219913 0.0102758 0
0.0206531 0.0106638 0
0.0246005 0.0121226 0
0.0175615 0.0112668 0
0.0226268 0.0113932 0
0.021081 0.0116947 0
0.0191073 0.0109653 0
0.0206467 0.0106574 0
0.0177634 0.0114687 0
0.0165543 0.00863703 0
0.0192051 0.011063 0
0.0171589 0.0100529 0
0.0186005 0.00964721 0
0.0366137 0.0108791 0
0.0327515 0.0127 0
0.0416454 0.0115305 0
0.0346826 0.0117896 0
0.0371985 0.0121153 0
0.0391296 0.0112048 0
0.0365965 0.0108963 0
0.0315873 0.0109867 0
0.0331165 0.012335 0
0.0340919 0.0109415 0
0.0323519 0.0116609 0
0.0348565 0.0116157 0
0.0365948 0.0108602 0
0.0413655 0.0112506 0
0.0389208 0.00802511 0
0.0389802 0.0110554 0
0.0401432 0.00963786 0
0.0377578 0.00944266 0
0.0365776 0.0108774 0
0.0385497 0.00839628 0
0.0318012 0.0112007 0
0.0375637 0.00963682 0
0.0351754 0.00979847 0
0.0341894 0.011039 0
0.0286744 0.0120704 0
0.0245805 0.0121834 0
0.0326725 0.0122794 0
0.0266275 0.0121269 0
0.0286265 0.0122314 0
0.0306735 0.0121749 0
0.0286687 0.0120646 0
0.0327282 0.012335 0
0.0319206 0.0109867 0
0.0306984 0.0121998 0
0.0323244 0.0116609 0
0.0302947 0.0115257 0
0.0286656 0.0120792 0
0.0245852 0.01229 0
0.0247403 0.0120236 0
0.0266254 0.0121846 0
0.0246627 0.0121568 0
0.0267029 0.0120514 0
0.0286599 0.0120735 0
0.0316929 0.0112145 0
0.0245682 0.0122731 0
0.0301764 0.011644 0
0.0281306 0.0117438 0
0.0266141 0.0121733 0
0.0274642 0.0113622 0
0.023326 0.0119077 0
0.0247388 0.0122294 0
0.0253951 0.011635 0
0.0240324 0.0120686 0
0.0261015 0.0117958 0
0.0274694 0.011357 0
0.0245682 0.0124 0
0.0316929 0.0110778 0
0.0260188 0.0118785 0
0.0281306 0.0117389 0
0.0295811 0.0112174 0
0.0274584 0.0113564 0
0.0294831 0.00997406 0
0.0234131 0.0119948 0
0.0284708 0.0106652 0
0.0264481 0.0109844 0
0.0254358 0.0116756 0
0.0274637 0.0113512 0
0.0315851 0.01097 0
0.0296549 0.00980221 0
0.0295244 0.0111606 0
0.03062 0.0103861 0
0.0285593 0.0105767 0
0.0208838 0.0125917 0
0.0245467 0.0122294 0
0.0235005 0.0119077 0
0.0227153 0.0124106 0
0.0240236 0.0120686 0
0.0221922 0.0122497 0
0.0208864 0.0125943 0
0.0177922 0.0127839 0
0.0245409 0.0122236 0
0.0193393 0.0126891 0
0.0211665 0.0125038 0
0.0227136 0.0124089 0
0.0208803 0.0125952 0
0.0233801 0.0120281 0
0.0172481 0.0131604 0
0.0221302 0.0123117 0
0.0203141 0.0125943 0
0.0190642 0.0128778 0
0.0208828 0.0125978 0
0.0172437 0.013156 0
0.01789 0.012686 0
0.0190632 0.0128769 0
0.0175668 0.012921 0
0.0193864 0.0126419 0
0.0213022 0.0122051 0
0.0247297 0.0120236 0
0.0246332 0.01229 0
0.023016 0.0121143 0
0.0246814 0.0121568 0
0.0229677 0.0122475 0
0.0212996 0.0122077 0
0.0245409 0.0123823 0
0.0177922 0.0126484 0
0.0229202 0.012295 0
0.0211665 0.0125154 0
0.0195459 0.0124281 0
0.0213023 0.0122052 0
0.0175615 0.0114518 0
0.0246005 0.0118944 0
0.0194319 0.0118285 0
0.021081 0.0116731 0
0.0229514 0.0120498 0
0.0212997 0.0122078 0
0.0178815 0.0127377 0
0.0176085 0.0114048 0
0.0195906 0.0124728 0
0.017745 0.0120713 0
0.0194541 0.0118063 0
0.0338232 0.00904511 0
0.0349251 0.00683105 0
0.0295411 0.0100112 0
0.0343741 0.00793808 0
0.0322331 0.00842111 0
0.0316822 0.00952814 0
0.03383 0.00905197 0
0.0293322 0.00980221 0
0.0320005 0.01097 0
0.0315811 0.00942709 0
0.0306663 0.0103861 0
0.0329153 0.010011 0
0.0338253 0.009043 0
0.0382509 0.00818398 0
0.0350525 0.00670362 0
0.0360381 0.00861349 0
0.0366517 0.0074438 0
0.0344389 0.00787331 0
0.0338322 0.00904986 0
0.0318012 0.0111693 0
0.0385497 0.00848272 0
0.0328167 0.0101096 0
0.0351754 0.00982602 0
0.0361909 0.00876629 0
0.0254228 0.0107056 0
0.0234131 0.0120166 0
0.0294831 0.00996605 0
0.0244179 0.0113611 0
0.0264481 0.0109913 0
0.0274529 0.0103358 0
0.0254196 0.0107024 0
0.0293537 0.00983667 0
0.0269518 0.00916625 0
0.0273867 0.0102696 0
0.0281527 0.00950146 0
0.0261857 0.00993435 0
0.025421 0.0107074 0
0.0215099 0.011538 0
0.0235314 0.0118983 0
0.0234655 0.0111227 0
0.0225207 0.0117182 0
0.0244762 0.0113029 0
0.0254178 0.0107043 0
0.0268516 0.00926642 0
0.0216112 0.0116392 0
0.0261347 0.00998534 0
0.0242314 0.0104528 0
0.0235145 0.0111717 0
0.0307548 0.00805859 0
0.0295411 0.00991889 0
0.0349251 0.00696228 0
0.030148 0.00898874 0
0.0322331 0.00844058 0
0.03284 0.00751044 0
0.0307551 0.00805826 0
0.026737 0.00916625 0
0.0296234 0.00983667 0
0.0287461 0.00861226 0
0.0281802 0.00950146 0
0.0301893 0.00894747 0
0.0307525 0.00805631 0
0.0347378 0.00677493 0
0.0315777 0.0061776 0
0.0327451 0.00741562 0
0.0331577 0.00647627 0
0.0311651 0.00711696 0
0.0307529 0.00805598 0
0.0315379 0.0062174 0
0.026878 0.00930728 0
0.0311454 0.00713669 0
0.0292079 0.00776234 0
0.0288154 0.00868163 0
0.0388975 0.00544717 0
0.0347253 0.00670362 0
0.0387185 0.00818398 0
0.0368114 0.0060754 0
0.0367219 0.0074438 0
0.038808 0.00681558 0
0.0388923 0.00545236 0
0.0387046 0.00819795 0
0.0431511 0.00412682 0
0.0387984 0.00682515 0
0.0409278 0.00616238 0
0.0410217 0.00478959 0
0.0388961 0.00544585 0
0.03884 0.00296353 0
0.0349687 0.00694708 0
0.038868 0.00420469 0
0.0369044 0.0049553 0
0.0369324 0.00619646 0
0.0388909 0.00545103 0
0.0428008 0.00377655 0
0.0387394 0.00306409 0
0.0408459 0.00461379 0
0.0407701 0.00342032 0
0.0388152 0.00425756 0
0.0146563 0.0120193 0
0.0113139 0.0108651 0
0.0175867 0.0112772 0
0.0129851 0.0114422 0
0.0144503 0.0110712 0
0.0161215 0.0116482 0
0.0146576 0.0120205 0
0.0177144 0.0114048 0
0.0178159 0.0127377 0
0.016186 0.0117127 0
0.0177651 0.0120713 0
0.0162367 0.0123791 0
0.0146558 0.0120198 0
0.0116344 0.0128349 0
0.0113044 0.0108747 0
0.0131451 0.0124274 0
0.0114694 0.0118548 0
0.0129801 0.0114473 0
0.014657 0.0120211 0
0.0177957 0.0127579 0
0.0115379 0.0127384 0
0.0162264 0.0123895 0
0.0146668 0.0127481 0
0.0130975 0.0123797 0
0.0141223 0.00970582 0
0.0175867 0.0114111 0
0.0113139 0.0107551 0
0.0158545 0.0105585 0
0.0144503 0.0110831 0
0.0127181 0.0102305 0
0.0141198 0.00970837 0
0.0168402 0.00863703 0
0.0175291 0.0114687 0
0.01548 0.0091727 0
0.0171846 0.0100529 0
0.0158245 0.0105885 0
0.0141184 0.00970185 0
0.011466 0.0109073 0
0.010649 0.00767945 0
0.0127922 0.0103045 0
0.0110575 0.00929335 0
0.0123837 0.00869065 0
0.0141158 0.0097044 0
0.0107243 0.0076042 0
0.0166573 0.00845419 0
0.01242 0.0086543 0
0.0136908 0.0080292 0
0.0153866 0.00907929 0
0.0145641 0.0131935 0
0.017239 0.01322 0
0.0112998 0.0138093 0
0.0159016 0.0132067 0
0.0142694 0.0135146 0
0.012932 0.0135014 0
0.014566 0.0131916 0
0.0178441 0.012686 0
0.017303 0.013156 0
0.0162051 0.0129388 0
0.0175736 0.012921 0
0.0159345 0.0131738 0
0.0145648 0.0131941 0
0.01133 0.0138395 0
0.0115785 0.0127973 0
0.0129474 0.0135168 0
0.0114543 0.0133184 0
0.0130716 0.0129957 0
0.0145667 0.0131922 0
0.0115379 0.0128379 0
0.0177957 0.0126376 0
0.0130523 0.0130151 0
0.0146668 0.0127377 0
0.0161812 0.0129149 0
0.0196777 0.0125369 0
0.0172481 0.0132283 0
0.0233801 0.0119556 0
0.0184629 0.0128826 0
0.0203141 0.012592 0
0.0215289 0.0122463 0
0.0196755 0.0125392 0
0.0160764 0.0132184 0
0.0173464 0.01313 0
0.0178759 0.0128788 0
0.0167114 0.0131742 0
0.0185109 0.0128346 0
0.0196754 0.0125346 0
0.0233229 0.0118983 0
0.02169 0.011538 0
0.0214991 0.0122165 0
0.0225065 0.0117182 0
0.0206827 0.0120363 0
0.0196731 0.0125369 0
0.0215885 0.0116395 0
0.0161276 0.0132696 0
0.0206308 0.0120882 0
0.018858 0.0124546 0
0.0179003 0.0129032 0
0.0139031 0.0136923 0
0.0112998 0.0138752 0
0.017239 0.0131425 0
0.0126015 0.0137837 0
0.0142694 0.0135088 0
0.0155711 0.0134174 0
0.0139019 0.0136911 0
0.0172265 0.01313 0
0.0161928 0.0132184 0
0.0155642 0.0134106 0
0.0167097 0.0131742 0
0.0150474 0.0134548 0
0.0139014 0.013694 0
0.010644 0.0142965 0
0.0113637 0.0138113 0
0.0122727 0.0139953 0
0.0110039 0.0140539 0
0.0126325 0.0137527 0
0.0139002 0.0136929 0
0.0161164 0.0132949 0
0.0106631 0.0143157 0
0.0150083 0.0134939 0
0.0133898 0.0138053 0
0.0122816 0.0140043 0
0.00857245 0.0118097 0
0.0114406 0.0108747 0
0.0115307 0.0128349 0
0.0100065 0.0113422 0
0.0114857 0.0118548 0
0.0100516 0.0123223 0
0.00857235 0.0118098 0
0.0115503 0.0128153 0
0.00566691 0.0127428 0
0.0100613 0.0123126 0
0.00860862 0.012779 0
0.00711963 0.0122763 0
0.00857129 0.0118086 0
0.00554018 0.0105013 0
0.0113348 0.0107689 0
0.00705574 0.0111549 0
0.0084375 0.0106351 0
0.00995305 0.0112887 0
0.0085712 0.0118087 0
0.00575039 0.0128262 0
0.00550036 0.0105411 0
0.00716079 0.0123175 0
0.00562537 0.0116837 0
0.00703578 0.0111749 0
0.00858032 0.0134584 0
0.0116053 0.0127973 0
0.0113253 0.0138395 0
0.0100928 0.0131278 0
0.0114653 0.0133184 0
0.0099528 0.0136489 0
0.00858016 0.0134582 0
0.00566691 0.0127992 0
0.0115503 0.0127423 0
0.00712354 0.0131287 0
0.00860862 0.0127708 0
0.0100652 0.0131003 0
0.00857931 0.0134594 0
0.0113032 0.0138615 0
0.00558034 0.0141366 0
0.00994128 0.0136605 0
0.00844179 0.013999 0
0.00707983 0.013798 0
0.00857915 0.0134592 0
0.00561635 0.0141726 0
0.00566828 0.0127978 0
0.00709775 0.0138159 0
0.00564231 0.0134852 0
0.00712372 0.0131285 0
0.01318 0.00584439 0
0.0100565 0.00295045 0
0.0154905 0.00376346 0
0.0116183 0.00439742 0
0.0127735 0.00335696 0
0.0143353 0.00480393 0
0.0131838 0.00584823 0
0.0156477 0.00392064 0
0.0165332 0.00866129 0
0.0144158 0.00488444 0
0.0160904 0.00629097 0
0.0148585 0.00725476 0
0.013184 0.00584042 0
0.010876 0.00768287 0
0.00994249 0.00306447 0
0.01203 0.00676165 0
0.0104092 0.00537367 0
0.0115632 0.00445245 0
0.0131878 0.00584426 0
0.0166573 0.00853715 0
0.0107243 0.00753118 0
0.0149226 0.00719071 0
0.0136908 0.00803417 0
0.0119561 0.00668772 0
0.00823836 0.00909805 0
0.0108769 0.00767945 0
0.0112675 0.0109073 0
0.00955763 0.00838875 0
0.0110722 0.00929335 0
0.00975292 0.0100027 0
0.00823619 0.00909589 0
0.00525765 0.00707724 0
0.0107447 0.00754726 0
0.00674692 0.00808656 0
0.00800118 0.00731225 0
0.00949045 0.00832157 0
0.00823974 0.00909667 0
0.0113348 0.0108399 0
0.00554018 0.0104444 0
0.00978728 0.00996829 0
0.0084375 0.0106422 0
0.00688996 0.00977054 0
0.00823758 0.0090945 0
0.00565553 0.0105598 0
0.0051806 0.00715429 0
0.00694655 0.00982713 0
0.00541806 0.00885703 0
0.00670909 0.0081244 0
0.00772593 0.0051388 0
0.0101791 0.00306447 0
0.0106489 0.00768287 0
0.00895253 0.00410163 0
0.010414 0.00537367 0
0.00918741 0.00641084 0
0.00772792 0.0051368 0
0.0107447 0.00758705 0
0.00525765 0.00704054 0
0.00923631 0.00636193 0
0.00800118 0.0073138 0
0.00649279 0.00608867 0
0.00772422 0.00513709 0
0.00495137 0.00253005 0
0.0100709 0.00295623 0
0.0063378 0.00383357 0
0.00751113 0.00274314 0
0.00889756 0.00404666 0
0.00772622 0.0051351 0
0.00536714 0.00715003 0
0.0048642 0.00261723 0
0.00654668 0.00614256 0
0.00511567 0.00488363 0
0.00629521 0.00387616 0
0.0415904 0.0014582 0
0.0437904 0 0
0.040874 0 0
0.0426904 0.0007291 0
0.0423322 0 0
0.0412322 0.0007291 0
0.0415782 0.00144603 0
0.0431203 0.00338529 0
0.0436059 -0.00018451 0
0.0423493 0.00241566 0
0.0433631 0.00160039 0
0.042592 0.000630759 0
0.0415926 0.00145594 0
0.0411111 -0.000237145 0
0.0387744 0.00306255 0
0.0413519 0.000609398 0
0.0399428 0.0014127 0
0.0401835 0.00225925 0
0.0415805 0.00144377 0
0.038776 0.00306409 0
0.0427291 0.00377655 0
0.0401782 0.00225393 0
0.0407525 0.00342032 0
0.0421548 0.00261016 0
0.0384185 0.00138488 0
0.0387744 0.00291632 0
0.0411111 -0.000132171 0
0.0385965 0.0021506 0
0.0399428 0.00139207 0
0.0397648 0.000626356 0
0.038418 0.00138544 0
0.0353375 0.00294942 0
0.0386034 0.00308734 0
0.0368778 0.00216743 0
0.0369705 0.00301838 0
0.0385107 0.00223639 0
0.0384235 0.00138987 0
0.0412433 0 0
0.0384636 0 0
0.0398334 0.000694934 0
0.0398534 0 0
0.0384436 0.000694934 0
0.038423 0.00139042 0
0.0385448 -8.12455e-05 0
0.035304 0.00291589 0
0.0384839 0.00065459 0
0.0369244 0.00141732 0
0.0368635 0.00215316 0
0.0351448 0.00473385 0
0.0349687 0.00672961 0
0.03884 0.00321046 0
0.0350568 0.00573173 0
0.0369044 0.00497003 0
0.0369924 0.00397216 0
0.0351462 0.00473526 0
0.0387168 0.00308734 0
0.0352831 0.00294942 0
0.0369315 0.0039113 0
0.037 0.00301838 0
0.0352146 0.00384234 0
0.0351474 0.00473128 0
0.0314334 0.0061776 0
0.0349234 0.00677493 0
0.0332904 0.00545444 0
0.0331784 0.00647627 0
0.0350354 0.00575311 0
0.0351488 0.00473269 0
0.0353521 0.00288041 0
0.0315408 0.00628501 0
0.0352504 0.00380655 0
0.0334465 0.00458271 0
0.0333448 0.00550885 0
0.0277514 0.00760953 0
0.0314297 0.00620737 0
0.0284229 0.00600488 0
0.0295906 0.00690845 0
0.0299263 0.00610613 0
0.0280872 0.0068072 0
0.0277518 0.00760996 0
0.026878 0.0092277 0
0.0315379 0.0063155 0
0.0273149 0.00841883 0
0.0292079 0.0077716 0
0.0296448 0.00696273 0
0.0277521 0.00760885 0
0.0284073 0.00602055 0
0.0241651 0.00895231 0
0.0280797 0.0068147 0
0.0262862 0.00748643 0
0.0259586 0.00828058 0
0.0277525 0.00760928 0
0.0240756 0.00886284 0
0.0269128 0.00919288 0
0.0259141 0.00823606 0
0.0254942 0.00902786 0
0.0273327 0.00840108 0
0.0318564 0.00452638 0
0.0283494 0.00600488 0
0.0315089 0.00620737 0
0.0301029 0.00526563 0
0.0299292 0.00610613 0
0.0316826 0.00536687 0
0.0318553 0.00452739 0
0.0315408 0.00617545 0
0.0353521 0.00299321 0
0.0316981 0.00535142 0
0.0334465 0.00458433 0
0.0336037 0.0037603 0
0.0318575 0.00452753 0
0.0321971 0.00294004 0
0.0284013 0.00605671 0
0.0320273 0.00373379 0
0.0302992 0.00449838 0
0.0301294 0.00529212 0
0.0318565 0.00452855 0
0.0353049 0.00294601 0
0.0321655 0.00297166 0
0.0335807 0.00373728 0
0.0337352 0.00295884 0
0.032011 0.0037501 0
0.0230695 0.0102952 0
0.0194362 0.0112957 0
0.0216868 0.0115453 0
0.0212529 0.0107954 0
0.0205615 0.0114205 0
0.0223782 0.0109202 0
0.0230699 0.0102947 0
0.0216112 0.0116209 0
0.0268516 0.00929804 0
0.0223406 0.0109578 0
0.0242314 0.0104595 0
0.0249608 0.00979639 0
0.0230681 0.0102937 0
0.024155 0.00892338 0
0.0195226 0.011382 0
0.0236115 0.00960856 0
0.0218388 0.0101527 0
0.0212953 0.0108379 0
0.0230685 0.0102933 0
0.0267464 0.00919288 0
0.0242155 0.00886284 0
0.0249075 0.0097431 0
0.025481 0.00902786 0
0.023642 0.00957808 0
0.0180205 0.0123834 0
0.0215138 0.0115453 0
0.0195881 0.0112957 0
0.0197672 0.0119643 0
0.0205509 0.0114205 0
0.0188043 0.0118395 0
0.018022 0.0123848 0
0.0161276 0.0132921 0
0.0215885 0.01162 0
0.0170748 0.0128384 0
0.018858 0.012456 0