# vtk DataFile Version 1.0
2D Unstructured Grid of Linear Triangles
ASCII

DATASET UNSTRUCTURED_GRID
POINTS 12288 float
0 0.03125 0
0 0 0
0.03125 0.03125 0
0 0.015625 0
0.015625 0.015625 0
0.015625 0.03125 0
0 0.03125 0
0.03125 0.03125 0
0 0.0625 0
0.015625 0.03125 0
0.015625 0.046875 0
0 0.046875 0
0.03125 0.0625 0
0.03125 0.03125 0
0.0625 0.0625 0
0.03125 0.046875 0
0.046875 0.046875 0
0.046875 0.0625 0
0.03125 0.0625 0
0 0.0625 0
0.03125 0.03125 0
0.015625 0.0625 0
0.015625 0.046875 0
0.03125 0.046875 0
0.03125 0.0625 0
0.0625 0.0625 0
0.03125 0.09375 0
0.046875 0.0625 0
0.046875 0.078125 0
0.03125 0.078125 0
0.03125 0.0625 0
0.03125 0.09375 0
0 0.0625 0
0.03125 0.078125 0
0.015625 0.078125 0
0.015625 0.0625 0
0.03125 0 0
0.03125 0.03125 0
0 0 0
0.03125 0.015625 0
0.015625 0.015625 0
0.015625 0 0
0.03125 0 0
0.0625 0 0
0.03125 0.03125 0
0.046875 0 0
0.046875 0.015625 0
0.03125 0.015625 0
0.0625 0.03125 0
0.0625 0.0625 0
0.03125 0.03125 0
0.0625 0.046875 0
0.046875 0.046875 0
0.046875 0.03125 0
0.0625 0.03125 0
0.03125 0.03125 0
0.0625 0 0
0.046875 0.03125 0
0.046875 0.015625 0
0.0625 0.015625 0
0.0625 0.03125 0
0.09375 0.03125 0
0.0625 0.0625 0
0.078125 0.03125 0
0.078125 0.046875 0
0.0625 0.046875 0
0.0625 0.03125 0
0.0625 0 0
0.09375 0.03125 0
0.0625 0.015625 0
0.078125 0.015625 0
0.078125 0.03125 0
0 0.09375 0
0.03125 0.09375 0
0 0.125 0
0.015625 0.09375 0
0.015625 0.109375 0
0 0.109375 0
0 0.09375 0
0 0.0625 0
0.03125 0.09375 0
0 0.078125 0
0.015625 0.078125 0
0.015625 0.09375 0
0.03125 0.125 0
0 0.125 0
0.03125 0.09375 0
0.015625 0.125 0
0.015625 0.109375 0
0.03125 0.109375 0
0.03125 0.125 0
0.03125 0.09375 0
0.0625 0.125 0
0.03125 0.109375 0
0.046875 0.109375 0
0.046875 0.125 0
0.03125 0.125 0
0.03125 0.15625 0
0 0.125 0
0.03125 0.140625 0
0.015625 0.140625 0
0.015625 0.125 0
0.03125 0.125 0
0.0625 0.125 0
0.03125 0.15625 0
0.046875 0.125 0
0.046875 0.140625 0
0.03125 0.140625 0
0.0625 0.09375 0
0.03125 0.09375 0
0.0625 0.0625 0
0.046875 0.09375 0
0.046875 0.078125 0
0.0625 0.078125 0
0.0625 0.09375 0
0.0625 0.125 0
0.03125 0.09375 0
0.0625 0.109375 0
0.046875 0.109375 0
0.046875 0.09375 0
0.0625 0.09375 0
0.0625 0.0625 0
0.09375 0.09375 0
0.0625 0.078125 0
0.078125 0.078125 0
0.078125 0.09375 0
0.0625 0.09375 0
0.09375 0.09375 0
0.0625 0.125 0
0.078125 0.09375 0
0.078125 0.109375 0
0.0625 0.109375 0
0.09375 0.125 0
0.09375 0.09375 0
0.125 0.125 0
0.09375 0.109375 0
0.109375 0.109375 0
0.109375 0.125 0
0.09375 0.125 0
0.0625 0.125 0
0.09375 0.09375 0
0.078125 0.125 0
0.078125 0.109375 0
0.09375 0.109375 0
0.09375 0.125 0
0.125 0.125 0
0.09375 0.15625 0
0.109375 0.125 0
0.109375 0.140625 0
0.09375 0.140625 0
0.09375 0.125 0
0.09375 0.15625 0
0.0625 0.125 0
0.09375 0.140625 0
0.078125 0.140625 0
0.078125 0.125 0
0.125 0.09375 0
0.125 0.125 0
0.09375 0.09375 0
0.125 0.109375 0
0.109375 0.109375 0
0.109375 0.09375 0
0.125 0.09375 0
0.09375 0.09375 0
0.125 0.0625 0
0.109375 0.09375 0
0.109375 0.078125 0
0.125 0.078125 0
0.125 0.09375 0
0.15625 0.09375 0
0.125 0.125 0
0.140625 0.09375 0
0.140625 0.109375 0
0.125 0.109375 0
0.125 0.09375 0
0.125 0.0625 0
0.15625 0.09375 0
0.125 0.078125 0
0.140625 0.078125 0
0.140625 0.09375 0
0.09375 0.0625 0
0.09375 0.09375 0
0.0625 0.0625 0
0.09375 0.078125 0
0.078125 0.078125 0
0.078125 0.0625 0
0.09375 0.0625 0
0.125 0.0625 0
0.09375 0.09375 0
0.109375 0.0625 0
0.109375 0.078125 0
0.09375 0.078125 0
0.09375 0.0625 0
0.0625 0.0625 0
0.09375 0.03125 0
0.078125 0.0625 0
0.078125 0.046875 0
0.09375 0.046875 0
0.09375 0.0625 0
0.09375 0.03125 0
0.125 0.0625 0
0.09375 0.046875 0
0.109375 0.046875 0
0.109375 0.0625 0
0.0625 0.15625 0
0.09375 0.15625 0
0.0625 0.1875 0
0.078125 0.15625 0
0.078125 0.171875 0
0.0625 0.171875 0
0.0625 0.15625 0
0.0625 0.125 0
0.09375 0.15625 0
0.0625 0.140625 0
0.078125 0.140625 0
0.078125 0.15625 0
0.0625 0.15625 0
0.0625 0.1875 0
0.03125 0.15625 0
0.0625 0.171875 0
0.046875 0.171875 0
0.046875 0.15625 0
0.0625 0.15625 0
0.03125 0.15625 0
0.0625 0.125 0
0.046875 0.15625 0
0.046875 0.140625 0
0.0625 0.140625 0
0.125 0.15625 0
0.09375 0.15625 0
0.125 0.125 0
0.109375 0.15625 0
0.109375 0.140625 0
0.125 0.140625 0
0.125 0.15625 0
0.125 0.1875 0
0.09375 0.15625 0
0.125 0.171875 0
0.109375 0.171875 0
0.109375 0.15625 0
0.125 0.15625 0
0.125 0.125 0
0.15625 0.15625 0
0.125 0.140625 0
0.140625 0.140625 0
0.140625 0.15625 0
0.125 0.15625 0
0.15625 0.15625 0
0.125 0.1875 0
0.140625 0.15625 0
0.140625 0.171875 0
0.125 0.171875 0
0.09375 0.1875 0
0.0625 0.1875 0
0.09375 0.15625 0
0.078125 0.1875 0
0.078125 0.171875 0
0.09375 0.171875 0
0.09375 0.1875 0
0.09375 0.15625 0
0.125 0.1875 0
0.09375 0.171875 0
0.109375 0.171875 0
0.109375 0.1875 0
0.09375 0.1875 0
0.09375 0.21875 0
0.0625 0.1875 0
0.09375 0.203125 0
0.078125 0.203125 0
0.078125 0.1875 0
0.09375 0.1875 0
0.125 0.1875 0
0.09375 0.21875 0
0.109375 0.1875 0
0.109375 0.203125 0
0.09375 0.203125 0
0 0.15625 0
0 0.125 0
0.03125 0.15625 0
0 0.140625 0
0.015625 0.140625 0
0.015625 0.15625 0
0 0.15625 0
0.03125 0.15625 0
0 0.1875 0
0.015625 0.15625 0
0.015625 0.171875 0
0 0.171875 0
0.03125 0.1875 0
0.03125 0.15625 0
0.0625 0.1875 0
0.03125 0.171875 0
0.046875 0.171875 0
0.046875 0.1875 0
0.03125 0.1875 0
0 0.1875 0
0.03125 0.15625 0
0.015625 0.1875 0
0.015625 0.171875 0
0.03125 0.171875 0
0.03125 0.1875 0
0.0625 0.1875 0
0.03125 0.21875 0
0.046875 0.1875 0
0.046875 0.203125 0
0.03125 0.203125 0
0.03125 0.1875 0
0.03125 0.21875 0
0 0.1875 0
0.03125 0.203125 0
0.015625 0.203125 0
0.015625 0.1875 0
0.09375 0 0
0.125 0 0
0.09375 0.03125 0
0.109375 0 0
0.109375 0.015625 0
0.09375 0.015625 0
0.09375 0 0
0.09375 0.03125 0
0.0625 0 0
0.09375 0.015625 0
0.078125 0.015625 0
0.078125 0 0
0.125 0.03125 0
0.09375 0.03125 0
0.125 0 0
0.109375 0.03125 0
0.109375 0.015625 0
0.125 0.015625 0
0.125 0.03125 0
0.125 0.0625 0
0.09375 0.03125 0
0.125 0.046875 0
0.109375 0.046875 0
0.109375 0.03125 0
0.125 0.03125 0
0.125 0 0
0.15625 0.03125 0
0.125 0.015625 0
0.140625 0.015625 0
0.140625 0.03125 0
0.125 0.03125 0
0.15625 0.03125 0
0.125 0.0625 0
0.140625 0.03125 0
0.140625 0.046875 0
0.125 0.046875 0
0.15625 0.0625 0
0.1875 0.0625 0
0.15625 0.09375 0
0.171875 0.0625 0
0.171875 0.078125 0
0.15625 0.078125 0
0.15625 0.0625 0
0.15625 0.09375 0
0.125 0.0625 0
0.15625 0.078125 0
0.140625 0.078125 0
0.140625 0.0625 0
0.15625 0.0625 0
0.15625 0.03125 0
0.1875 0.0625 0
0.15625 0.046875 0
0.171875 0.046875 0
0.171875 0.0625 0
0.15625 0.0625 0
0.125 0.0625 0
0.15625 0.03125 0
0.140625 0.0625 0
0.140625 0.046875 0
0.15625 0.046875 0
0.15625 0.125 0
0.125 0.125 0
0.15625 0.09375 0
0.140625 0.125 0
0.140625 0.109375 0
0.15625 0.109375 0
0.15625 0.125 0
0.15625 0.09375 0
0.1875 0.125 0
0.15625 0.109375 0
0.171875 0.109375 0
0.171875 0.125 0
0.15625 0.125 0
0.15625 0.15625 0
0.125 0.125 0
0.15625 0.140625 0
0.140625 0.140625 0
0.140625 0.125 0
0.15625 0.125 0
0.1875 0.125 0
0.15625 0.15625 0
0.171875 0.125 0
0.171875 0.140625 0
0.15625 0.140625 0
0.1875 0.09375 0
0.15625 0.09375 0
0.1875 0.0625 0
0.171875 0.09375 0
0.171875 0.078125 0
0.1875 0.078125 0
0.1875 0.09375 0
0.1875 0.125 0
0.15625 0.09375 0
0.1875 0.109375 0
0.171875 0.109375 0
0.171875 0.09375 0
0.1875 0.09375 0
0.1875 0.0625 0
0.21875 0.09375 0
0.1875 0.078125 0
0.203125 0.078125 0
0.203125 0.09375 0
0.1875 0.09375 0
0.21875 0.09375 0
0.1875 0.125 0
0.203125 0.09375 0
0.203125 0.109375 0
0.1875 0.109375 0
0.15625 0 0
0.15625 0.03125 0
0.125 0 0
0.15625 0.015625 0
0.140625 0.015625 0
0.140625 0 0
0.15625 0 0
0.1875 0 0
0.15625 0.03125 0
0.171875 0 0
0.171875 0.015625 0
0.15625 0.015625 0
0.1875 0.03125 0
0.1875 0.0625 0
0.15625 0.03125 0
0.1875 0.046875 0
0.171875 0.046875 0
0.171875 0.03125 0
0.1875 0.03125 0
0.15625 0.03125 0
0.1875 0 0
0.171875 0.03125 0
0.171875 0.015625 0
0.1875 0.015625 0
0.1875 0.03125 0
0.21875 0.03125 0
0.1875 0.0625 0
0.203125 0.03125 0
0.203125 0.046875 0
0.1875 0.046875 0
0.1875 0.03125 0
0.1875 0 0
0.21875 0.03125 0
0.1875 0.015625 0
0.203125 0.015625 0
0.203125 0.03125 0
0 0.21875 0
0.03125 0.21875 0
0 0.25 0
0.015625 0.21875 0
0.015625 0.234375 0
0 0.234375 0
0 0.21875 0
0 0.1875 0
0.03125 0.21875 0
0 0.203125 0
0.015625 0.203125 0
0.015625 0.21875 0
0.03125 0.25 0
0 0.25 0
0.03125 0.21875 0
0.015625 0.25 0
0.015625 0.234375 0
0.03125 0.234375 0
0.03125 0.25 0
0.03125 0.21875 0
0.0625 0.25 0
0.03125 0.234375 0
0.046875 0.234375 0
0.046875 0.25 0
0.03125 0.25 0
0.03125 0.28125 0
0 0.25 0
0.03125 0.265625 0
0.015625 0.265625 0
0.015625 0.25 0
0.03125 0.25 0
0.0625 0.25 0
0.03125 0.28125 0
0.046875 0.25 0
0.046875 0.265625 0
0.03125 0.265625 0
0.0625 0.21875 0
0.03125 0.21875 0
0.0625 0.1875 0
0.046875 0.21875 0
0.046875 0.203125 0
0.0625 0.203125 0
0.0625 0.21875 0
0.0625 0.25 0
0.03125 0.21875 0
0.0625 0.234375 0
0.046875 0.234375 0
0.046875 0.21875 0
0.0625 0.21875 0
0.0625 0.1875 0
0.09375 0.21875 0
0.0625 0.203125 0
0.078125 0.203125 0
0.078125 0.21875 0
0.0625 0.21875 0
0.09375 0.21875 0
0.0625 0.25 0
0.078125 0.21875 0
0.078125 0.234375 0
0.0625 0.234375 0
0.09375 0.25 0
0.09375 0.21875 0
0.125 0.25 0
0.09375 0.234375 0
0.109375 0.234375 0
0.109375 0.25 0
0.09375 0.25 0
0.0625 0.25 0
0.09375 0.21875 0
0.078125 0.25 0
0.078125 0.234375 0
0.09375 0.234375 0
0.09375 0.25 0
0.125 0.25 0
0.09375 0.28125 0
0.109375 0.25 0
0.109375 0.265625 0
0.09375 0.265625 0
0.09375 0.25 0
0.09375 0.28125 0
0.0625 0.25 0
0.09375 0.265625 0
0.078125 0.265625 0
0.078125 0.25 0
0.125 0.21875 0
0.125 0.25 0
0.09375 0.21875 0
0.125 0.234375 0
0.109375 0.234375 0
0.109375 0.21875 0
0.125 0.21875 0
0.09375 0.21875 0
0.125 0.1875 0
0.109375 0.21875 0
0.109375 0.203125 0
0.125 0.203125 0
0.125 0.21875 0
0.15625 0.21875 0
0.125 0.25 0
0.140625 0.21875 0
0.140625 0.234375 0
0.125 0.234375 0
0.125 0.21875 0
0.125 0.1875 0
0.15625 0.21875 0
0.125 0.203125 0
0.140625 0.203125 0
0.140625 0.21875 0
0.0625 0.28125 0
0.0625 0.3125 0
0.03125 0.28125 0
0.0625 0.296875 0
0.046875 0.296875 0
0.046875 0.28125 0
0.0625 0.28125 0
0.03125 0.28125 0
0.0625 0.25 0
0.046875 0.28125 0
[...]
POINT_DATA 12288
VECTORS stress_1 float
0.0283219 0.0309398 0
0.172464 0.0668313 0
0.0642134 0.0263698 0
0.100393 0.0488856 0
0.118339 0.0466005 0
0.0462676 0.0286548 0
0.061864 0.0309398 0
0.0715295 0.0263698 0
0.0547327 0.0212743 0
0.0666967 0.0286548 0
0.0631311 0.023822 0
0.0582983 0.026107 0
0.0554805 0.0217779 0
0.0720774 0.0219035 0
0.0556061 0.0153193 0
0.0637789 0.0218407 0
0.0638418 0.0186114 0
0.0555433 0.0185486 0
0.0554805 0.0216226 0
0.0512812 0.0247257 0
0.0720774 0.0258219 0
0.0533808 0.0231742 0
0.0616793 0.0252738 0
0.0637789 0.0237223 0
0.055791 0.0217779 0
0.0580494 0.0153193 0
0.0465245 0.0195195 0
0.0569202 0.0185486 0
0.052287 0.0174194 0
0.0511577 0.0206487 0
0.055791 0.0216226 0
0.0465245 0.0177747 0
0.0519431 0.0247257 0
0.0511577 0.0196987 0
0.0492338 0.0212502 0
0.053867 0.0231742 0
0.0638277 0 0
0.079649 0.0418054 0
0.105633 0 0
0.0717384 0.0209027 0
0.0926411 0.0209027 0
0.0847305 0 0
0.0638277 0 0
0.0497139 0 0
0.079649 0.0141139 0
0.0567708 0 0
0.0646814 0.00705694 0
0.0717384 0.00705694 0
0.0612555 0.00973292 0
0.0571371 0.0168503 0
0.0683729 0.018199 0
0.0591963 0.0132916 0
0.062755 0.0175246 0
0.0648142 0.0139659 0
0.0618391 0.00973292 0
0.0755639 0.018199 0
0.0537058 -0.00399193 0
0.0687015 0.0139659 0
0.0646349 0.00710352 0
0.0577724 0.0028705 0
0.0612555 0.00944114 0
0.0548914 0.00397266 0
0.0571371 0.0158052 0
0.0580735 0.0067069 0
0.0560143 0.00988892 0
0.0591963 0.0126232 0
0.0618391 0.00944114 0
0.0537058 0.0011382 0
0.0535361 0.00397266 0
0.0577724 0.00528967 0
0.053621 0.00255543 0
0.0576876 0.0067069 0
0.0423797 0.0146397 0
0.0454891 0.019031 0
0.0369096 0.0115303 0
0.0439344 0.0168354 0
0.0411994 0.0152807 0
0.0396446 0.013085 0
0.0406057 0.0146397 0
0.0490322 0.0218148 0
0.0477808 0.019031 0
0.0448189 0.0182273 0
0.0484065 0.0204229 0
0.0441932 0.0168354 0
0.0395769 0.014818 0
0.036219 0.0122209 0
0.0463443 0.0181759 0
0.0378979 0.0135194 0
0.0412816 0.0151984 0
0.0429606 0.0164969 0
0.0395769 0.0148324 0
0.0463443 0.0176422 0
0.0423867 0.0153235 0
0.0429606 0.0162373 0
0.0443655 0.0164828 0
0.0409818 0.015078 0
0.0396059 0.014818 0
0.0343025 0.0122619 0
0.0370498 0.0122209 0
0.0369542 0.0135399 0
0.0356761 0.0122414 0
0.0383278 0.0135194 0
0.0396059 0.0148324 0
0.0418457 0.0153235 0
0.0343025 0.0125927 0
0.0407258 0.015078 0
0.0380741 0.0139581 0
0.0369542 0.0137125 0
0.0482426 0.0160974 0
0.0476243 0.0184196 0
0.056653 0.0167157 0
0.0479335 0.0172585 0
0.0521387 0.0175676 0
0.0524478 0.0164065 0
0.0482895 0.0160974 0
0.0419927 0.0149295 0
0.0471216 0.0184196 0
0.0451411 0.0155135 0
0.0445572 0.0166746 0
0.0477056 0.0172585 0
0.0482426 0.0161208 0
0.056653 0.0156691 0
0.0477909 0.0124813 0
0.0524478 0.015895 0
0.052222 0.0140752 0
0.0480168 0.0143011 0
0.0482895 0.0161208 0
0.0487623 0.0124813 0
0.0419927 0.0156481 0
0.0485259 0.0143011 0
0.0453775 0.0140647 0
0.0451411 0.0158844 0
0.0422749 0.0133398 0
0.0481547 0.0126685 0
0.0416036 0.0112939 0
0.0452148 0.0130042 0
0.0448792 0.0119812 0
0.0419392 0.0123169 0
0.0422749 0.0133349 0
0.0425209 0.0151199 0
0.0481547 0.0130888 0
0.0423979 0.0142274 0
0.0453378 0.0141044 0
0.0452148 0.0132118 0
0.0422847 0.0133398 0
0.0421224 0.0112939 0
0.0372625 0.0135021 0
0.0422036 0.0123169 0
0.0396925 0.012398 0
0.0397736 0.013421 0
0.0422847 0.0133349 0
0.0372625 0.0131509 0
0.0421008 0.0151199 0
0.0397736 0.0132429 0
0.0396817 0.0141354 0
0.0421928 0.0142274 0
0.0458498 0.00958181 0
0.0418341 0.0115245 0
0.0477925 0.0123062 0
0.043842 0.0105531 0
0.0448133 0.0119153 0
0.0468211 0.010944 0
0.0458844 0.00958181 0
0.0488049 0.0123062 0
0.0491063 0.00666137 0
0.0473446 0.010944 0
0.0489556 0.0094838 0
0.0474954 0.00812159 0
0.0458498 0.0095645 0
0.0438801 0.00740016 0
0.0418341 0.0115342 0
0.044865 0.00848233 0
0.0428571 0.00946716 0
0.043842 0.0105493 0
0.0458844 0.0095645 0
0.0491063 0.00689404 0
0.043214 0.00740016 0
0.0474954 0.00822927 0
0.0461601 0.0071471 0
0.0445492 0.00848233 0
0.0526144 0.00977865 0
0.048268 0.0129584 0
0.0557941 0.0148102 0
0.0504412 0.0113685 0
0.0520311 0.0138843 0
0.0542043 0.0122944 0
0.0526144 0.00972264 0
0.0494939 0.00627376 0
0.048268 0.0128431 0
0.0510542 0.0079982 0
0.048881 0.00955843 0
0.0504412 0.0112829 0
0.0527264 0.00977865 0
0.0581321 0.0148102 0
0.0544911 0.00437299 0
0.0554292 0.0122944 0
0.0563116 0.00959161 0
0.0536088 0.00707582 0
0.0527264 0.00972264 0
0.0544911 0.00527233 0
0.0482761 0.00627376 0
0.0536088 0.00749749 0
0.0513836 0.00577305 0
0.0505012 0.0079982 0
0.0361047 0.0135268 0
0.0372908 0.0133084 0
0.0313967 0.0123407 0
0.0366978 0.0134176 0
0.0343437 0.0128246 0
0.0337507 0.0129338 0
0.0360791 0.0135268 0
0.0418487 0.0148678 0
0.0374201 0.0133084 0
0.0389639 0.0141973 0
0.0396344 0.0140881 0
0.0367496 0.0134176 0
0.0361047 0.013514 0
0.0313967 0.0120675 0
0.0346582 0.0126225 0
0.0337507 0.0127907 0
0.0330274 0.012345 0
0.0353814 0.0130682 0
0.0360791 0.013514 0
0.0342727 0.0126225 0
0.0418487 0.0153204 0
0.0351759 0.0130682 0
0.0380607 0.0139714 0
0.0389639 0.0144172 0
0.0370614 0.0121172 0
0.0375592 0.0132055 0
0.0417969 0.0116195 0
0.0373103 0.0126614 0
0.039678 0.0124125 0
0.0394291 0.0118683 0
0.0370629 0.0121172 0
0.0327622 0.0123198 0
0.0372654 0.0132055 0
0.0349126 0.0122185 0
0.0350138 0.0127626 0
0.0371642 0.0126614 0
0.0370614 0.012118 0
0.0417969 0.0114109 0
0.0363543 0.0109078 0
0.0394291 0.0117644 0
0.0390756 0.0111593 0
0.0367079 0.0115129 0
0.0370629 0.012118 0
0.0366629 0.0109078 0
0.0327622 0.012518 0
0.0368629 0.0115129 0
0.0347125 0.0117129 0
0.0349126 0.012318 0
0.0322901 0.0125914 0
0.0314678 0.0122696 0
0.0371855 0.0134138 0
0.031879 0.0124305 0
0.0343267 0.0128417 0
0.0347378 0.0130026 0
0.0322901 0.0125974 0
0.0371855 0.0131256 0
0.0328183 0.0123758 0
0.0347378 0.0128615 0
0.0350019 0.0127507 0
0.0325542 0.0124866 0
0.0323021 0.0125914 0
0.0280878 0.0118623 0
0.031573 0.0122696 0
0.0301949 0.0122269 0
0.0298304 0.012066 0
0.0319376 0.0124305 0
0.0323021 0.0125974 0
0.0328329 0.0123758 0
0.0280878 0.0120666 0
0.0325675 0.0124866 0
0.0304603 0.0122212 0
0.0301949 0.012332 0
0.0320756 0.00913942 0
0.0365624 0.0117334 0
0.0346696 0.012629 0
0.034319 0.0104364 0
0.035616 0.0121812 0
0.0333726 0.0108842 0
0.0323652 0.00913942 0
0.0340481 0.012629 0
0.0281966 0.00745647 0
0.0332067 0.0108842 0
0.0311224 0.0100427 0
0.0302809 0.00829795 0
0.029877 0.0104954 0
0.0343004 0.0122646 0
0.0316463 0.0123171 0
0.0320887 0.01138 0
0.0329733 0.0122909 0
0.0307616 0.0114062 0
0.029877 0.0104947 0
0.027995 0.00765809 0
0.0343004 0.0123767 0
0.028936 0.0090764 0
0.0311477 0.0100174 0
0.0320887 0.0114357 0
0.0298783 0.0104954 0
0.0312711 0.0123171 0
0.0259119 0.00910265 0
0.0305747 0.0114062 0
0.0285915 0.0107099 0
0.0278951 0.00979901 0
0.0298783 0.0104947 0
0.0259119 0.00899989 0
0.0283835 0.00765809 0
0.0278951 0.0097473 0
0.0271477 0.00832899 0
0.0291309 0.0090764 0
0.0479613 0 0
0.0452962 0 0
0.0541698 0.0026651 0
0.0466287 0 0
0.049733 0.00133255 0
0.0510655 0.00133255 0
0.0479613 0 0
0.0541698 0.00460632 0
0.0525676 0 0
0.0510655 0.00230316 0
0.0533687 0.00230316 0
0.0502644 0 0
0.0490652 0.00276607 0
0.0527305 0.0041044 0
0.0461954 -0.000899199 0
0.0508979 0.00343523 0
0.0494629 0.0016026 0
0.0476303 0.000933435 0
0.0490862 0.00276607 0
0.0490053 0.00700302 0
0.0533232 0.0041044 0
0.0490458 0.00488455 0
0.0511643 0.00555371 0
0.0512047 0.00343523 0
0.0490652 0.00277657 0
0.0461954 -0.00014368 0
0.046145 0.00189884 0
0.0476303 0.00131644 0
0.0461702 0.000877581 0
0.0476051 0.0023377 0
0.0490862 0.00277657 0
0.0457623 0.00189884 0
0.0490053 0.00610053 0
0.0474242 0.0023377 0
0.0473838 0.00399968 0
0.0490458 0.00443855 0
0.0455772 0.00481534 0
0.0429678 0.00380646 0
0.0435957 0.00742471 0
0.0442725 0.0043109 0
0.0432818 0.00561558 0
0.0445865 0.00612002 0
0.0455772 0.00482169 0
0.0435957 0.00778193 0
0.0485375 0.00632517 0
0.0445865 0.00630181 0
0.0460666 0.00705355 0
0.0470573 0.00557343 0
0.0455899 0.00481534 0
0.0460302 0.00207705 0
0.0428516 0.00380646 0
0.0458101 0.0034462 0
0.0444409 0.00294175 0
0.0442208 0.0043109 0
0.0455899 0.00482169 0
0.0487807 0.00632517 0
0.0460302 0.00163091 0
0.0471853 0.00557343 0
0.0474055 0.00397804 0
0.0458101 0.0032263 0
0.0401944 0.00959685 0
0.0421374 0.0112309 0
0.0436264 0.00765391 0
0.0411659 0.0104139 0
0.0428819 0.00944241 0
0.0419104 0.00862538 0
0.0401944 0.00959062 0
0.0436264 0.00770807 0
0.0383119 0.00823527 0
0.0419104 0.00864934 0
0.0409691 0.00797167 0
0.0392532 0.00891294 0
0.040182 0.00959685 0
0.0364784 0.0110318 0
0.0416169 0.0112309 0
0.0383302 0.0103143 0
0.0390476 0.0111314 0
0.0408994 0.0104139 0
0.040182 0.00959062 0
0.0387076 0.00823527 0
0.0364784 0.0110649 0
0.0394448 0.00891294 0
0.037593 0.00965011 0
0.0383302 0.0103278 0
0.0411415 0.00625766 0
0.0436153 0.00740517 0
0.0429904 0.00378386 0
0.0423784 0.00683142 0
0.0433029 0.00559452 0
0.042066 0.00502076 0
0.0411312 0.00625766 0
0.0385266 0.00844995 0
0.0433235 0.00740517 0
0.0398289 0.00735381 0
0.040925 0.00792756 0
0.0422273 0.00683142 0
0.0411415 0.00625252 0
0.0429904 0.00400337 0
0.0388923 0.00541208 0
0.042066 0.00512794 0
0.0409414 0.00470772 0
0.0400169 0.0058323 0
0.0411312 0.00625252 0
0.0390813 0.00541208 0
0.0385266 0.00830242 0
0.0401062 0.0058323 0
0.0388039 0.00685725 0
0.0398289 0.00727747 0
0.044583 0 0
0.0460022 0.00175603 0
0.046339 0 0
0.0452926 0.000878013 0
0.0461706 0.000878013 0
0.045461 0 0
0.044583 0 0
0.0431289 0 0
0.0460022 0.00145409 0
0.043856 0 0
0.0445655 0.000727044 0
0.0452926 0.000727044 0
0.043594 0.00160706 0
0.0429607 0.00391555 0
0.0459025 0.00194935 0
0.0432774 0.00276131 0
0.0444316 0.00293245 0
0.0447483 0.00177821 0
0.0435822 0.00160706 0
0.0455069 0.00194935 0
0.0434465 -0.000317612 0
0.0445446 0.00177821 0
0.0444767 0.000815871 0
0.0435144 0.000644724 0
0.043594 0.00161295 0
0.0415506 0.00144896 0
0.0429607 0.00365637 0
0.0425723 0.00153095 0
0.0422557 0.00255266 0
0.0432774 0.00263466 0
0.0435822 0.00161295 0
0.0434465 -0.000140897 0
0.0418284 0.00144896 0
0.0435144 0.000736027 0
0.0426375 0.000654029 0
0.0427053 0.00153095 0
0.0248145 0.00610557 0
0.025797 0.00916674 0
0.0213898 0.00512316 0
0.0253058 0.00763616 0
0.0235934 0.00714495 0
0.0231022 0.00561437 0
0.0247113 0.00610557 0
0.0281985 0.00747306 0
0.0260788 0.00916674 0
0.0264549 0.00678931 0
0.0271386 0.0083199 0
0.025395 0.00763616 0
0.022409 0.00791864 0
0.0212867 0.00522625 0
0.0259228 0.00904088 0
0.0218478 0.00657244 0
0.0236048 0.00713356 0
0.0241659 0.00847976 0
0.022409 0.00791813 0
0.0259228 0.00900638 0
0.0234972 0.010048 0
0.0241659 0.00846225 0
0.02471 0.00952719 0
0.0229531 0.00898307 0
0.0224079 0.00791864 0
0.0191009 0.00701199 0
0.0215013 0.00522625 0
0.0207544 0.00746532 0
0.0203011 0.00611912 0
0.0219546 0.00657244 0
0.0224079 0.00791813 0
0.0232724 0.010048 0
0.0191009 0.0070537 0
0.0228401 0.00898307 0
0.0211866 0.00855086 0
0.0207544 0.00748592 0
0.0271226 0.0109329 0
0.0258281 0.00918649 0
0.0313608 0.0122274 0
0.0264753 0.0100597 0
0.0285944 0.0107069 0
0.0292417 0.0115801 0
0.0271306 0.0109329 0
0.0233544 0.00990524 0
0.0261029 0.00918649 0
0.0252425 0.0104191 0
0.0247287 0.00954586 0
0.0266167 0.0100597 0
0.0271226 0.0109368 0
0.0313608 0.0120573 0
0.0282431 0.0120177 0
0.0292417 0.0114971 0
0.0298019 0.0120375 0
0.0276828 0.0114773 0
0.0271306 0.0109368 0
0.0280478 0.0120177 0
0.0233544 0.0100196 0
0.0275892 0.0114773 0
0.0257011 0.0110186 0
0.0252425 0.0104782 0
0.0241118 0.0112343 0
0.0280588 0.0118613 0
0.0247387 0.0119943 0
0.0260853 0.0115478 0
0.0263988 0.0119278 0
0.0244252 0.0116143 0
0.0241118 0.0112316 0
0.0233367 0.0100373 0
0.0280588 0.0120067 0
0.0237242 0.0106345 0
0.0256977 0.011022 0
0.0260853 0.0116192 0
0.0241171 0.0112343 0
0.024648 0.0119943 0
0.0205526 0.0107035 0
0.0243826 0.0116143 0
0.0226003 0.0113489 0
0.0223349 0.0109689 0
0.0241171 0.0112316 0
0.0205526 0.0105956 0
0.0234811 0.0100373 0
0.0223349 0.0109136 0
0.0220169 0.0103165 0
0.0237991 0.0106345 0
0.0284688 0.0121925 0
0.0246469 0.0119025 0
0.0281788 0.0119813 0
0.0265578 0.0120475 0
0.0264128 0.0119419 0
0.0283238 0.0120869 0
0.0284634 0.0121925 0
0.0281731 0.0119813 0
0.0327259 0.0124828 0
0.0283182 0.0120869 0
0.0304495 0.0122321 0
0.0305947 0.0123376 0
0.0284688 0.0121952 0
0.0286164 0.0120993 0
0.0246469 0.0120477 0
0.0285426 0.0121473 0
0.0266316 0.0120735 0
0.0265578 0.0121214 0
0.0284634 0.0121952 0
0.0327259 0.0122995 0
0.0285677 0.0120993 0
0.0305947 0.0122474 0
0.0306468 0.0121994 0
0.0285155 0.0121473 0
0.019888 0.00912393 0
0.0166588 0.00844964 0
0.0192138 0.00712073 0
0.0182734 0.00878678 0
0.0179363 0.00778518 0
0.0195509 0.00812233 0
0.0198852 0.00912393 0
0.0190339 0.00712073 0
0.0233451 0.00997525 0
0.0194596 0.00812233 0
0.0211895 0.00854799 0
0.0216152 0.00954959 0
0.019888 0.00912534 0
0.0205096 0.0107042 0
0.0166588 0.00850376 0
0.0201988 0.00991477 0
0.0185842 0.00960398 0
0.0182734 0.00881455 0
0.0198852 0.00912534 0
0.0233451 0.00990134 0
0.0206612 0.0107042 0
0.0216152 0.00951334 0
0.0220032 0.0103028 0
0.0202732 0.00991477 0
0.0183914 0.00432904 0
0.0214067 0.00513171 0
0.0191941 0.00710516 0
0.0198991 0.00473038 0
0.0203004 0.00611844 0
0.0187928 0.0057171 0
0.0184477 0.00432904 0
0.0190345 0.00710516 0
0.0154578 0.00374229 0
0.0187411 0.0057171 0
0.0172461 0.00542372 0
0.0169528 0.00403566 0
0.016076 0.00634664 0
0.0191103 0.00701729 0
0.0167466 0.00853752 0
0.0175932 0.00668196 0
0.0179285 0.0077774 0
0.0164113 0.00744208 0
0.016076 0.0063472 0
0.0153939 0.00380621 0
0.0191103 0.00702931 0
0.0157349 0.0050767 0
0.0172521 0.00541776 0
0.0175932 0.00668825 0
0.0160749 0.00634664 0
0.0166025 0.00853752 0
0.0131508 0.00581905 0
0.0163387 0.00744208 0
0.0148766 0.00717829 0
0.0146128 0.00608284 0
0.0160749 0.0063472 0
0.0131508 0.00579921 0
0.0155269 0.00380621 0
0.0146128 0.0060732 0
0.0143388 0.00480271 0
0.0158009 0.0050767 0
0.0209694 0.0116085 0
0.0205638 0.0106922 0
0.0246282 0.0120142 0
0.0207666 0.0111504 0
0.022596 0.0113532 0
0.0227988 0.0118114 0
0.0209729 0.0116085 0
0.0176075 0.0112727 0
0.020637 0.0106922 0
0.0192902 0.0114406 0
0.0191223 0.0109825 0
0.020805 0.0111504 0
0.0209694 0.0116103 0
0.0246282 0.0119013 0
0.0212605 0.012232 0
0.0227988 0.0117558 0
0.0229443 0.0120667 0
0.021115 0.0119211 0
0.0209729 0.0116103 0
0.0212217 0.012232 0
0.0176075 0.0113614 0
0.0210973 0.0119211 0
0.0194146 0.0117967 0
0.0192902 0.0114858 0
0.0171933 0.0101044 0
0.0166259 0.00853662 0
0.0205419 0.0106719 0
0.0169096 0.00932054 0
0.0185839 0.00960426 0
0.0188676 0.0103882 0
0.0171933 0.0101056 0
0.0205419 0.0105972 0
0.0176848 0.01135 0
0.0188676 0.0103514 0
0.0191134 0.0109736 0
0.0174391 0.0107278 0
0.0171957 0.0101044 0
0.0140619 0.00965486 0
0.0167461 0.00853662 0
0.0156288 0.00987966 0
0.015404 0.00909574 0
0.0169709 0.00932054 0
0.0171957 0.0101056 0
0.0175885 0.01135 0
0.0140619 0.00971286 0
0.0173921 0.0107278 0
0.0158252 0.0105314 0
0.0156288 0.00990925 0
0.0323688 0.0116933 0
0.0364614 0.0109815 0
0.031657 0.0109904 0
0.0344151 0.0113374 0
0.0340592 0.0109859 0
0.0320129 0.0113418 0
0.0323688 0.0116931 0
0.0329526 0.0123276 0
0.0364614 0.0111093 0
0.0326607 0.0120104 0
0.034707 0.0117185 0
0.0344151 0.0114012 0
0.0323692 0.0116933 0
0.0318597 0.0109904 0
0.0285463 0.0122028 0
0.0321144 0.0113418 0
0.030203 0.0115966 0
0.0304577 0.011948 0
0.0323692 0.0116931 0
0.0285463 0.0120779 0
0.032754 0.0123276 0
0.0304577 0.0118855 0
0.0306502 0.0122028 0
0.0325616 0.0120104 0
0.0351782 0.00988857 0
0.0317332 0.0110665 0
0.0363562 0.0108764 0
0.0334557 0.0104776 0
0.0340447 0.0109715 0
0.0357672 0.0103825 0
0.0351838 0.00988857 0
0.036667 0.0108764 0
0.0385375 0.00840544 0
0.0359254 0.0103825 0
0.0376022 0.0096409 0
0.0368606 0.009147 0
0.0351782 0.00988577 0
0.0339616 0.00903239 0
0.0317332 0.0111024 0
0.0345699 0.00945908 0
0.0328474 0.0100674 0
0.0334557 0.0104941 0
0.0351838 0.00988577 0
0.0385375 0.00840869 0
0.0337067 0.00903239 0
0.0368606 0.00914723 0
0.0361221 0.00872054 0
0.0344453 0.00945908 0
0.0247152 0.0121966 0
0.0247233 0.0119712 0
0.0285271 0.0121885 0
0.0247193 0.0120839 0
0.0266252 0.0120799 0
0.0266212 0.0121926 0
0.0247152 0.012198 0
0.0285271 0.0120653 0
0.0245825 0.012227 0
0.0266212 0.0121316 0
0.0265548 0.0121461 0
0.0246489 0.0122125 0
0.0247181 0.0121966 0
0.0212051 0.0121766 0
0.0246981 0.0119712 0
0.0229616 0.0121866 0
0.0229516 0.0120739 0
0.0247081 0.0120839 0
0.0247181 0.012198 0
0.0246359 0.012227 0
0.0212051 0.0122802 0
0.024677 0.0122125 0
0.0229205 0.0122536 0
0.0229616 0.0122391 0
0.0280581 0.0117433 0
0.0286758 0.0120733 0
0.0317244 0.0111256 0
0.028367 0.0119083 0
0.0302001 0.0115995 0
0.0298913 0.0114345 0
0.0280582 0.0117433 0
0.0245757 0.0122203 0
0.0285352 0.0120733 0
0.026317 0.0119818 0
0.0265554 0.0121468 0
0.0282967 0.0119083 0
0.0280581 0.0117434 0
0.0317244 0.01104 0
0.0273548 0.0113588 0
0.0298913 0.0113917 0
0.0295396 0.0111994 0
0.0277065 0.0115511 0
0.0280582 0.0117434 0
0.0274966 0.0113588 0
0.0245757 0.012305 0
0.0277774 0.0115511 0
0.0260362 0.0118319 0
0.026317 0.0120242 0
0.0240429 0.0120813 0
0.0274 0.0113947 0
0.0233563 0.0118999 0
0.0257215 0.011738 0
0.0253781 0.0116473 0
0.0236996 0.0119906 0
0.0240429 0.0120813 0
0.0246688 0.0122119 0
0.0274 0.0114555 0
0.0243559 0.0121466 0
0.0260344 0.0118337 0
0.0257215 0.0117684 0
0.0240431 0.0120813 0
0.0234618 0.0118999 0
0.0208184 0.0126626 0
0.0237524 0.0119906 0
0.0221401 0.0122813 0
0.0224307 0.0123719 0
0.0240431 0.0120813 0
0.0208184 0.0126025 0
0.0245643 0.0122119 0
0.0224307 0.0123419 0
0.0226914 0.0124072 0
0.0243037 0.0121466 0
0.0264291 0.0110114 0
0.0233927 0.0119364 0
0.0273541 0.0113488 0
0.0249109 0.0114739 0
0.0253734 0.0116426 0
0.0268916 0.0111801 0
0.0264305 0.0110114 0
0.0274988 0.0113488 0
0.0294788 0.00994313 0
0.0269646 0.0111801 0
0.0284888 0.010646 0
0.0279547 0.0104772 0
0.0264291 0.0110106 0
0.0254748 0.0106975 0
0.0233927 0.0119649 0
0.025952 0.0108541 0
0.0244338 0.0113312 0
0.0249109 0.0114878 0
0.0264305 0.0110106 0
0.0294788 0.00992475 0
0.0253446 0.0106975 0
0.0279547 0.0104677 0
0.0274117 0.0103111 0
0.0258876 0.0108541 0
0.0306306 0.0103819 0
0.0274052 0.0114093 0
0.0316579 0.0109736 0
0.0290179 0.0108956 0
0.0295316 0.0111914 0
0.0311443 0.0106778 0
0.0306306 0.0103806 0
0.0295689 0.0098531 0
0.0274052 0.0114423 0
0.0300997 0.0101168 0
0.028487 0.0106477 0
0.0290179 0.0109114 0
0.0306334 0.0103819 0
0.031862 0.0109736 0
0.0338407 0.00915325 0
0.0312477 0.0106778 0
0.0328514 0.0100634 0
0.032237 0.0097676 0
0.0306334 0.0103806 0
0.0338407 0.00913945 0
0.0293922 0.0098531 0
0.032237 0.00976001 0
0.0316165 0.00949628 0
0.0300128 0.0101168 0
0.021088 0.0124807 0
0.0208682 0.0126022 0
0.0178181 0.0127005 0
0.0209781 0.0125414 0
0.0193431 0.0126514 0
0.0194531 0.0125906 0
0.0210864 0.0124807 0
0.0245648 0.0122124 0
0.0208181 0.0126022 0
0.0228256 0.0123465 0
0.0226914 0.0124073 0
0.0209522 0.0125414 0
0.021088 0.0124799 0
0.0178181 0.0126262 0
0.0212344 0.0122172 0
0.0194531 0.012553 0
0.0195263 0.0124217 0
0.0211612 0.0123485 0
0.0210864 0.0124799 0
0.0212681 0.0122172 0
0.0245648 0.0122982 0
0.0211772 0.0123485 0
0.0229164 0.0122577 0
0.0228256 0.012389 0
0.0202721 0.0125886 0
0.0208883 0.0125927 0
0.0233893 0.0119725 0
0.0205802 0.0125907 0
0.0221388 0.0122826 0
0.0218307 0.0122806 0
0.0202723 0.0125886 0
0.0172525 0.0131226 0
0.0208062 0.0125927 0
0.0187624 0.0128556 0
0.0190294 0.0128576 0
0.0205393 0.0125907 0
0.0202721 0.0125887 0
0.0233893 0.0119282 0
0.0196116 0.0125347 0
0.0218307 0.0122584 0
0.0215004 0.0122314 0
0.0199419 0.0125617 0
0.0202723 0.0125887 0
0.0196952 0.0125347 0
0.0172525 0.0131658 0
0.0199838 0.0125617 0
0.0184738 0.0128503 0
0.0187624 0.0128773 0
0.0175888 0.0129389 0
0.017869 0.0126497 0
0.0208116 0.0126588 0
0.0177289 0.0127943 0
0.0193403 0.0126542 0
0.0192002 0.0127989 0
0.0175888 0.0129395 0
0.0208116 0.0125981 0
0.0172474 0.0131175 0
0.0192002 0.0127688 0
0.0190295 0.0128578 0
0.0174181 0.0130285 0
0.0175899 0.0129389 0
0.0145139 0.0131827 0
0.0178336 0.0126497 0
0.0160519 0.0130608 0
0.0161738 0.0129162 0
0.0177117 0.0127943 0